ITEM: TIMESTEP
0
ITEM: NUMBER OF ATOMS
10368
ITEM: BOX BOUNDS pp pp pp
0 36.4986
0 36.4986
0 62.9993
ITEM: ATOMS id type xu yu zu ice17 ice1c ice1h ice2 ice3 ice4 ice5 ice6 ice7 ice20
1 OW1 3.56 0.07 42.34 0 0.94 0 0 0 0 0 0 0 0
2 HW2 3.48 1.02 42.49 0 0 0 0 0 0 0 0 0 0
3 HW3 4.24 36.49 41.68 0 0 0 0 0 0 0 0 0 0
4 MW4 3.64 0.19 42.27 0 0 0 0 0 0 0 0 0 0
5 OW1 2.36 22.91 44 0.01 0 0 0 0 0 0 0 0 0
6 HW2 2.13 23.2 44.89 0 0 0 0 0 0 0 0 0 0
7 HW3 1.61 23.17 43.47 0 0 0 0 0 0 0 0 0 0
8 MW4 2.23 22.99 44.05 0 0 0 0 0 0 0 0 0 0
9 OW1 6.78 15.84 48.07 0.05 0 0 0 0 0 0 0 0 0
10 HW2 7.45 16.51 48.18 0 0 0 0 0 0 0 0 0 0
11 HW3 6.99 15.19 48.73 0 0 0 0 0 0 0 0 0 0
12 MW4 6.9 15.84 48.17 0 0 0 0 0 0 0 0 0 0
13 OW1 33.2 5.34 18.16 0.99 0 0 0 0 0 0 0 0.01 0
14 HW2 33.9 5.7 17.62 0 0 0 0 0 0 0 0 0 0
15 HW3 32.87 4.6 17.66 0 0 0 0 0 0 0 0 0 0
16 MW4 33.25 5.29 18.02 0 0 0 0 0 0 0 0 0 0
17 OW1 20.53 8.33 30.06 0 0 0 0 0 0 0 0 0 0
18 HW2 19.96 7.73 29.57 0 0 0 0 0 0 0 0 0 0
19 HW3 20.27 8.21 30.97 0 0 0 0 0 0 0 0 0 0
20 MW4 20.42 8.23 30.12 0 0 0 0 0 0 0 0 0 0
21 OW1 7.61 3 29.56 0 0.86 0 0 0 0 0 0 0 0
22 HW2 7.12 3.68 30.03 0 0 0 0 0 0 0 0 0 0
23 HW3 8.13 3.48 28.91 0 0 0 0 0 0 0 0 0 0
24 MW4 7.62 3.16 29.54 0 0 0 0 0 0 0 0 0 0
25 OW1 28.5 19.31 46.99 0 0 0 0 0 0 0 0 0 0
26 HW2 29.1 19.95 47.37 0 0 0 0 0 0 0 0 0 0
27 HW3 27.88 19.84 46.48 0 0 0 0 0 0 0 0 0 0
28 MW4 28.5 19.47 46.97 0 0 0 0 0 0 0 0 0 0
29 OW1 34.88 17.2 48.14 0 0 0 0 0 0 0 0 0 0
30 HW2 35.39 17.64 48.82 0 0 0 0 0 0 0 0 0 0
31 HW3 33.97 17.3 48.42 0 0 0 0 0 0 0 0 0 0
32 MW4 34.82 17.27 48.27 0 0 0 0 0 0 0 0 0 0
33 OW1 35.97 19.11 27.49 0 0.1 0.07 0 0 0 0 0 0 0
34 HW2 0.09 18.71 26.89 0 0 0 0 0 0 0 0 0 0
35 HW3 35.73 19.94 27.07 0 0 0 0 0 0 0 0 0 0
36 MW4 36.02 19.17 27.35 0 0 0 0 0 0 0 0 0 0
37 OW1 24.95 20.07 27.79 0 0 0.56 0 0 0 0 0 0 0
38 HW2 24.61 20.02 26.89 0 0 0 0 0 0 0 0 0 0
39 HW3 24.3 19.61 28.32 0 0 0 0 0 0 0 0 0 0
40 MW4 24.81 20 27.74 0 0 0 0 0 0 0 0 0 0
41 OW1 13.55 27.77 31.71 0 0.16 0 0 0 0 0 0 0 0
42 HW2 13.58 27.6 30.77 0 0 0 0 0 0 0 0 0 0
43 HW3 13.19 28.66 31.78 0 0 0 0 0 0 0 0 0 0
44 MW4 13.51 27.87 31.59 0 0 0 0 0 0 0 0 0 0
45 OW1 34.72 18.03 22.68 0 0.71 0 0 0 0 0 0 0 0
46 HW2 34.06 18.27 23.31 0 0 0 0 0 0 0 0 0 0
47 HW3 35.37 17.54 23.19 0 0 0 0 0 0 0 0 0 0
48 MW4 34.72 17.99 22.83 0 0 0 0 0 0 0 0 0 0
49 OW1 1.73 3.99 29.27 0 0.82 0 0 0 0 0 0 0 0
50 HW2 0.97 4.37 29.72 0 0 0 0 0 0 0 0 0 0
51 HW3 2.44 4.06 29.9 0 0 0 0 0 0 0 0 0 0
52 MW4 1.72 4.05 29.42 0 0 0 0 0 0 0 0 0 0
53 OW1 20.11 19.78 42.26 0 0 0 0 0 0 0 0 0 0
54 HW2 20.48 20.31 42.96 0 0 0 0 0 0 0 0 0 0
55 HW3 19.3 19.42 42.63 0 0 0 0 0 0 0 0 0 0
56 MW4 20.05 19.81 42.4 0 0 0 0 0 0 0 0 0 0
57 OW1 3.87 18.42 46.19 0 0 0 0 0 0 0 0 0 0
58 HW2 4.16 18.26 47.09 0 0 0 0 0 0 0 0 0 0
59 HW3 2.91 18.38 46.23 0 0 0 0 0 0 0 0 0 0
60 MW4 3.78 18.39 46.31 0 0 0 0 0 0 0 0 0 0
61 OW1 9.08 19.62 46.42 0 0 0 0 0 0 0 0 0 0
62 HW2 10.04 19.64 46.45 0 0 0 0 0 0 0 0 0 0
63 HW3 8.83 19.17 47.23 0 0 0 0 0 0 0 0 0 0
64 MW4 9.18 19.56 46.53 0 0 0 0 0 0 0 0 0 0
65 OW1 11.58 25.29 49.44 0 0.06 0 0 0 0 0 0 0 0
66 HW2 12.33 25.86 49.61 0 0 0 0 0 0 0 0 0 0
67 HW3 11.81 24.83 48.63 0 0 0 0 0 0 0 0 0 0
68 MW4 11.71 25.3 49.35 0 0 0 0 0 0 0 0 0 0
69 OW1 28.57 30.44 30.43 0 0 0 0 0 0 0 0 0 0
70 HW2 29.1 29.74 30.05 0 0 0 0 0 0 0 0 0 0
71 HW3 28.22 30.07 31.24 0 0 0 0 0 0 0 0 0 0
72 MW4 28.59 30.3 30.49 0 0 0 0 0 0 0 0 0 0
73 OW1 33.31 1.83 23.55 0 0.95 0 0 0 0 0 0 0 0
74 HW2 32.87 2.52 23.05 0 0 0 0 0 0 0 0 0 0
75 HW3 33.68 2.29 24.3 0 0 0 0 0 0 0 0 0 0
76 MW4 33.3 1.99 23.59 0 0 0 0 0 0 0 0 0 0
77 OW1 21.41 17.13 27.2 0 0 0.63 0 0 0 0 0 0 0
78 HW2 21.24 17.74 26.48 0 0 0 0 0 0 0 0 0 0
79 HW3 22.07 16.53 26.86 0 0 0 0 0 0 0 0 0 0
80 MW4 21.48 17.13 27.06 0 0 0 0 0 0 0 0 0 0
81 OW1 23.27 24.81 23.61 0 0.82 0 0 0 0 0 0 0 0
82 HW2 22.8 25.42 23.06 0 0 0 0 0 0 0 0 0 0
83 HW3 22.58 24.27 24.01 0 0 0 0 0 0 0 0 0 0
84 MW4 23.11 24.82 23.59 0 0 0 0 0 0 0 0 0 0
85 OW1 33.35 31.7 23.61 0 0.46 0 0 0 0 0 0 0 0
86 HW2 32.56 31.2 23.84 0 0 0 0 0 0 0 0 0 0
87 HW3 33.02 32.44 23.1 0 0 0 0 0 0 0 0 0 0
88 MW4 33.2 31.74 23.58 0 0 0 0 0 0 0 0 0 0
89 OW1 7.74 9.32 22.06 0 0.76 0 0 0 0 0 0 0 0
90 HW2 8.07 8.6 22.61 0 0 0 0 0 0 0 0 0 0
91 HW3 8.53 9.74 21.72 0 0 0 0 0 0 0 0 0 0
92 MW4 7.89 9.28 22.09 0 0 0 0 0 0 0 0 0 0
93 OW1 4.79 9.4 25.73 0 0.99 0 0 0 0 0 0 0 0
94 HW2 5.54 8.91 26.06 0 0 0 0 0 0 0 0 0 0
95 HW3 5.16 10 25.09 0 0 0 0 0 0 0 0 0 0
96 MW4 4.94 9.41 25.69 0 0 0 0 0 0 0 0 0 0
97 OW1 22.04 34.27 9.49 1 0 0 0 0 0 0 0 0 0
98 HW2 22.77 33.65 9.49 0 0 0 0 0 0 0 0 0 0
99 HW3 22.41 35.09 9.82 0 0 0 0 0 0 0 0 0 0
100 MW4 22.19 34.3 9.53 0 0 0 0 0 0 0 0 0 0
101 OW1 21.3 35.08 6.97 1 0 0 0 0 0 0 0 0 0
102 HW2 21 34.26 6.58 0 0 0 0 0 0 0 0 0 0
103 HW3 21.71 34.82 7.8 0 0 0 0 0 0 0 0 0 0
104 MW4 21.32 34.93 7.03 0 0 0 0 0 0 0 0 0 0
105 OW1 18.51 34.18 4.42 0.99 0 0 0 0 0 0 0 0.01 0
106 HW2 18.1 34.92 4.86 0 0 0 0 0 0 0 0 0 0
107 HW3 18.95 34.56 3.66 0 0 0 0 0 0 0 0 0 0
108 MW4 18.51 34.33 4.38 0 0 0 0 0 0 0 0 0 0
109 OW1 16.75 30.23 5.5 1 0 0 0 0 0 0 0 0 0
110 HW2 16 30.1 6.07 0 0 0 0 0 0 0 0 0 0
111 HW3 17.49 30.31 6.09 0 0 0 0 0 0 0 0 0 0
112 MW4 16.75 30.23 5.65 0 0 0 0 0 0 0 0 0 0
113 OW1 18.78 30.76 7.27 0.99 0 0 0 0 0 0 0 0.01 0
114 HW2 18.54 31.15 8.1 0 0 0 0 0 0 0 0 0 0
115 HW3 19.39 31.39 6.88 0 0 0 0 0 0 0 0 0 0
116 MW4 18.83 30.9 7.33 0 0 0 0 0 0 0 0 0 0
117 OW1 20.15 33.04 0.25 0.99 0 0 0 0 0 0 0 0 0
118 HW2 19.92 33.65 0.94 0 0 0 0 0 0 0 0 0 0
119 HW3 20.85 33.47 62.76 0 0 0 0 0 0 0 0 0 0
120 MW4 20.21 33.18 0.28 0 0 0 0 0 0 0 0 0 0
121 OW1 22.3 31.91 3.91 0.98 0 0 0 0 0 0 0 0.01 0
122 HW2 22.94 32.59 3.67 0 0 0 0 0 0 0 0 0 0
123 HW3 22.76 31.36 4.54 0 0 0 0 0 0 0 0 0 0
124 MW4 22.45 31.93 3.96 0 0 0 0 0 0 0 0 0 0
125 OW1 19.4 35.11 2.03 1 0 0 0 0 0 0 0 0 0
126 HW2 18.58 35.54 1.77 0 0 0 0 0 0 0 0 0 0
127 HW3 19.96 35.82 2.33 0 0 0 0 0 0 0 0 0 0
128 MW4 19.36 35.26 2.03 0 0 0 0 0 0 0 0 0 0
129 OW1 16.58 30.27 0.44 1 0 0 0 0 0 0 0 0 0
130 HW2 16.92 30.98 62.88 0 0 0 0 0 0 0 0 0 0
131 HW3 16.44 29.54 62.83 0 0 0 0 0 0 0 0 0 0
132 MW4 16.61 30.27 0.28 0 0 0 0 0 0 0 0 0 0
133 OW1 20.98 30.69 1.76 0.99 0 0 0 0 0 0 0 0.01 0
134 HW2 21.41 31.04 2.53 0 0 0 0 0 0 0 0 0 0
135 HW3 20.7 31.46 1.27 0 0 0 0 0 0 0 0 0 0
136 MW4 21 30.84 1.79 0 0 0 0 0 0 0 0 0 0
137 OW1 18 31.98 9.72 1 0 0 0 0 0 0 0 0 0
138 HW2 17.55 31.27 10.19 0 0 0 0 0 0 0 0 0 0
139 HW3 17.33 32.65 9.58 0 0 0 0 0 0 0 0 0 0
140 MW4 17.85 31.97 9.77 0 0 0 0 0 0 0 0 0 0
141 OW1 20.43 32.8 5.97 1 0 0 0 0 0 0 0 0 0
142 HW2 19.69 33.16 5.48 0 0 0 0 0 0 0 0 0 0
143 HW3 21.06 32.54 5.31 0 0 0 0 0 0 0 0 0 0
144 MW4 20.41 32.81 5.82 0 0 0 0 0 0 0 0 0 0
145 OW1 36.39 21.85 56.06 0.59 0 0 0 0 0 0 0 0 0
146 HW2 36.03 22.65 56.44 0 0 0 0 0 0 0 0 0 0
147 HW3 0.17 22.1 55.18 0 0 0 0 0 0 0 0 0 0
148 MW4 36.38 21.99 55.99 0 0 0 0 0 0 0 0 0 0
149 OW1 30.67 28.56 48.69 0 0 0 0 0 0 0 0 0 0
150 HW2 30.44 29.35 48.19 0 0 0 0 0 0 0 0 0 0
151 HW3 31.6 28.44 48.53 0 0 0 0 0 0 0 0 0 0
152 MW4 30.76 28.65 48.6 0 0 0 0 0 0 0 0 0 0
153 OW1 24.26 4.68 14.87 1 0 0 0 0 0 0 0 0 0
154 HW2 24.55 4.9 13.98 0 0 0 0 0 0 0 0 0 0
155 HW3 23.61 4 14.75 0 0 0 0 0 0 0 0 0 0
156 MW4 24.21 4.62 14.73 0 0 0 0 0 0 0 0 0 0
157 OW1 23.14 0.45 16.25 0.99 0 0 0 0 0 0 0 0 0
158 HW2 23.25 36.22 15.64 0 0 0 0 0 0 0 0 0 0
159 HW3 22.33 0.25 16.72 0 0 0 0 0 0 0 0 0 0
160 MW4 23.05 0.33 16.23 0 0 0 0 0 0 0 0 0 0
161 OW1 25.41 1.13 18.04 0.99 0 0 0 0 0 0 0 0.01 0
162 HW2 24.77 0.77 17.43 0 0 0 0 0 0 0 0 0 0
163 HW3 25.77 1.9 17.59 0 0 0 0 0 0 0 0 0 0
164 MW4 25.37 1.19 17.89 0 0 0 0 0 0 0 0 0 0
165 OW1 26.24 3.34 10.68 0.99 0 0 0 0 0 0 0 0 0
166 HW2 26.5 2.6 11.23 0 0 0 0 0 0 0 0 0 0
167 HW3 25.63 2.96 10.05 0 0 0 0 0 0 0 0 0 0
168 MW4 26.19 3.19 10.67 0 0 0 0 0 0 0 0 0 0
169 OW1 26.1 3.29 16.52 1 0 0 0 0 0 0 0 0 0
170 HW2 26.48 4.08 16.91 0 0 0 0 0 0 0 0 0 0
171 HW3 25.47 3.62 15.87 0 0 0 0 0 0 0 0 0 0
172 MW4 26.06 3.44 16.49 0 0 0 0 0 0 0 0 0 0
173 OW1 25.28 5.25 12.26 1 0 0 0 0 0 0 0 0 0
174 HW2 25.9 5.97 12.24 0 0 0 0 0 0 0 0 0 0
175 HW3 25.63 4.6 11.66 0 0 0 0 0 0 0 0 0 0
176 MW4 25.41 5.26 12.18 0 0 0 0 0 0 0 0 0 0
177 OW1 22.89 0.05 10.47 1 0 0 0 0 0 0 0 0 0
178 HW2 23.61 36.49 11.11 0 0 0 0 0 0 0 0 0 0
179 HW3 22.17 0.44 10.96 0 0 0 0 0 0 0 0 0 0
180 MW4 22.89 0.1 10.63 0 0 0 0 0 0 0 0 0 0
181 OW1 27.21 1.26 12.09 1 0 0 0 0 0 0 0 0 0
182 HW2 26.5 0.64 12.25 0 0 0 0 0 0 0 0 0 0
183 HW3 27.5 1.52 12.96 0 0 0 0 0 0 0 0 0 0
184 MW4 27.16 1.21 12.23 0 0 0 0 0 0 0 0 0 0
185 OW1 0.97 36.47 25.61 0 1 0 0 0 0 0 0 0 0
186 HW2 1.65 0.29 25.01 0 0 0 0 0 0 0 0 0 0
187 HW3 0.38 35.96 25.06 0 0 0 0 0 0 0 0 0 0
188 MW4 0.98 36.44 25.46 0 0 0 0 0 0 0 0 0 0
189 OW1 27.98 2.22 14.67 1 0 0 0 0 0 0 0 0 0
190 HW2 27.35 2.56 15.31 0 0 0 0 0 0 0 0 0 0
191 HW3 28.66 2.89 14.63 0 0 0 0 0 0 0 0 0 0
192 MW4 27.99 2.36 14.75 0 0 0 0 0 0 0 0 0 0
193 OW1 18.91 13.97 59.14 0 0 0 0 0 0 0 0 0 0
194 HW2 18.42 13.2 58.84 0 0 0 0 0 0 0 0 0 0
195 HW3 18.56 14.14 60.02 0 0 0 0 0 0 0 0 0 0
196 MW4 18.8 13.89 59.22 0 0 0 0 0 0 0 0 0 0
197 OW1 0.59 17.94 29.75 0 0.01 0 0 0 0 0 0 0 0
198 HW2 0.24 18.58 29.12 0 0 0 0 0 0 0 0 0 0
199 HW3 0.36 17.09 29.39 0 0 0 0 0 0 0 0 0 0
200 MW4 0.51 17.91 29.62 0 0 0 0 0 0 0 0 0 0
201 OW1 8.3 9.39 29.27 0 0.48 0 0 0 0 0 0 0 0
202 HW2 8.87 9.87 28.67 0 0 0 0 0 0 0 0 0 0
203 HW3 8.9 8.86 29.8 0 0 0 0 0 0 0 0 0 0
204 MW4 8.46 9.38 29.26 0 0 0 0 0 0 0 0 0 0
205 OW1 13.06 29.74 24.44 0 0.39 0 0 0 0 0 0 0 0
206 HW2 13.33 30.45 25.03 0 0 0 0 0 0 0 0 0 0
207 HW3 13.86 29.5 23.97 0 0 0 0 0 0 0 0 0 0
208 MW4 13.2 29.81 24.46 0 0 0 0 0 0 0 0 0 0
209 OW1 35.69 7.47 35.04 0 0.05 0 0 0 0 0 0 0 0
210 HW2 35.63 6.94 35.83 0 0 0 0 0 0 0 0 0 0
211 HW3 0.02 7.2 34.63 0 0 0 0 0 0 0 0 0 0
212 MW4 35.79 7.37 35.09 0 0 0 0 0 0 0 0 0 0
213 OW1 0.81 36.05 41.43 0 0.97 0 0 0 0 0 0 0 0
214 HW2 0.21 35.94 42.17 0 0 0 0 0 0 0 0 0 0
215 HW3 1.68 36.03 41.84 0 0 0 0 0 0 0 0 0 0
216 MW4 0.85 36.03 41.59 0 0 0 0 0 0 0 0 0 0
217 OW1 24.73 36.41 47.82 0 0 0 0 0 0 0 0 0 0
218 HW2 24.26 0.72 48.04 0 0 0 0 0 0 0 0 0 0
219 HW3 25.57 36.49 48.26 0 0 0 0 0 0 0 0 0 0
220 MW4 24.78 0.03 47.91 0 0 0 0 0 0 0 0 0 0
221 OW1 20.21 20.8 58.36 0.61 0.03 0 0 0 0 0 0 0 0
222 HW2 19.54 20.87 57.68 0 0 0 0 0 0 0 0 0 0
223 HW3 20.88 20.23 57.98 0 0 0 0 0 0 0 0 0 0
224 MW4 20.21 20.73 58.22 0 0 0 0 0 0 0 0 0 0
225 OW1 36.47 28.38 41.26 0 0 0 0 0 0 0 0 0 0
226 HW2 0.06 27.47 40.99 0 0 0 0 0 0 0 0 0 0
227 HW3 36.35 28.33 42.21 0 0 0 0 0 0 0 0 0 0
228 MW4 36.46 28.25 41.35 0 0 0 0 0 0 0 0 0 0
229 OW1 7.27 17.44 30.16 0 0.72 0 0 0 0 0 0 0 0
230 HW2 6.38 17.68 29.87 0 0 0 0 0 0 0 0 0 0
231 HW3 7.14 16.97 30.98 0 0 0 0 0 0 0 0 0 0
232 MW4 7.13 17.41 30.23 0 0 0 0 0 0 0 0 0 0
233 OW1 16.59 21.01 42.33 0 0 0 0 0 0 0 0 0 0
234 HW2 15.69 21.29 42.16 0 0 0 0 0 0 0 0 0 0
235 HW3 17.1 21.42 41.63 0 0 0 0 0 0 0 0 0 0
236 MW4 16.54 21.1 42.21 0 0 0 0 0 0 0 0 0 0
237 OW1 10.03 13.48 56.78 0.15 0 0 0 0 0 0 0 0 0
238 HW2 9.29 13.95 57.16 0 0 0 0 0 0 0 0 0 0
239 HW3 10.63 14.17 56.49 0 0 0 0 0 0 0 0 0 0
240 MW4 10.01 13.64 56.79 0 0 0 0 0 0 0 0 0 0
241 OW1 8.35 11.36 50.08 0 0 0 0 0 0 0 0 0 0
242 HW2 9.13 10.87 50.32 0 0 0 0 0 0 0 0 0 0
243 HW3 7.85 11.44 50.89 0 0 0 0 0 0 0 0 0 0
244 MW4 8.38 11.3 50.22 0 0 0 0 0 0 0 0 0 0
245 OW1 6.95 18.95 59.61 0.99 0 0 0 0 0 0 0 0 0
246 HW2 6.2 18.7 59.06 0 0 0 0 0 0 0 0 0 0
247 HW3 6.54 19.3 60.4 0 0 0 0 0 0 0 0 0 0
248 MW4 6.79 18.96 59.64 0 0 0 0 0 0 0 0 0 0
249 OW1 10.06 7.35 51.05 0 0 0 0 0 0 0 0 0 0
250 HW2 10.51 6.88 50.36 0 0 0 0 0 0 0 0 0 0
251 HW3 9.14 7.37 50.77 0 0 0 0 0 0 0 0 0 0
252 MW4 9.99 7.29 50.92 0 0 0 0 0 0 0 0 0 0
253 OW1 22.35 34.65 45.55 0 0 0 0 0 0 0 0 0 0
254 HW2 23.16 35.16 45.47 0 0 0 0 0 0 0 0 0 0
255 HW3 22.54 33.84 45.08 0 0 0 0 0 0 0 0 0 0
256 MW4 22.48 34.61 45.48 0 0 0 0 0 0 0 0 0 0
257 OW1 27.17 17.57 48.73 0 0.02 0 0 0 0 0 0 0 0
258 HW2 27.35 17.76 49.65 0 0 0 0 0 0 0 0 0 0
259 HW3 27.67 18.23 48.25 0 0 0 0 0 0 0 0 0 0
260 MW4 27.26 17.68 48.79 0 0 0 0 0 0 0 0 0 0
261 OW1 0.08 22.62 33.07 0 0 0 0 0 0 0 0 0 0
262 HW2 0.06 23.44 33.56 0 0 0 0 0 0 0 0 0 0
263 HW3 0.91 22.65 32.59 0 0 0 0 0 0 0 0 0 0
264 MW4 0.19 22.74 33.07 0 0 0 0 0 0 0 0 0 0
265 OW1 19.14 34.89 36.04 0 0 0 0 0 0 0 0 0 0
266 HW2 18.43 35.18 36.62 0 0 0 0 0 0 0 0 0 0
267 HW3 18.91 35.25 35.18 0 0 0 0 0 0 0 0 0 0
268 MW4 19.01 34.98 36 0 0 0 0 0 0 0 0 0 0
269 OW1 7.85 9.53 37.28 0.12 0 0 0 0 0 0 0 0 0
270 HW2 7.42 10.3 37.65 0 0 0 0 0 0 0 0 0 0
271 HW3 8.76 9.59 37.59 0 0 0 0 0 0 0 0 0 0
272 MW4 7.92 9.64 37.37 0 0 0 0 0 0 0 0 0 0
273 OW1 28.81 18.55 23.68 0.05 0.01 0 0 0 0 0 0 0 0
274 HW2 28.34 17.73 23.84 0 0 0 0 0 0 0 0 0 0
275 HW3 29.59 18.28 23.2 0 0 0 0 0 0 0 0 0 0
276 MW4 28.85 18.4 23.64 0 0 0 0 0 0 0 0 0 0
277 OW1 10.71 5.99 44.37 0 0.03 0 0 0 0 0 0 0 0
278 HW2 9.98 5.85 43.76 0 0 0 0 0 0 0 0 0 0
279 HW3 11.39 6.42 43.83 0 0 0 0 0 0 0 0 0 0
280 MW4 10.71 6.03 44.21 0 0 0 0 0 0 0 0 0 0
281 OW1 15.99 10.22 41.67 0 0 0 0 0.01 0 0 0 0 0
282 HW2 16.94 10.18 41.78 0 0 0 0 0 0 0 0 0 0
283 HW3 15.79 11.16 41.65 0 0 0 0 0 0 0 0 0 0
284 MW4 16.09 10.34 41.68 0 0 0 0 0 0 0 0 0 0
285 OW1 32.97 31.67 49.15 0 0.01 0 0 0 0 0 0 0 0
286 HW2 32.21 32.25 49.11 0 0 0 0 0 0 0 0 0 0
287 HW3 33.17 31.48 48.23 0 0 0 0 0 0 0 0 0 0
288 MW4 32.89 31.72 49.02 0 0 0 0 0 0 0 0 0 0
289 OW1 29.56 14.63 19.89 0.51 0 0 0 0 0 0 0 0 0
290 HW2 30.13 15.16 20.46 0 0 0 0 0 0 0 0 0 0
291 HW3 29.17 13.99 20.48 0 0 0 0 0 0 0 0 0 0
292 MW4 29.59 14.62 20.05 0 0 0 0 0 0 0 0 0 0
293 OW1 17.94 18.36 33.54 0.11 0 0 0 0 0 0 0 0 0
294 HW2 17.07 18.37 33.14 0 0 0 0 0 0 0 0 0 0
295 HW3 17.77 18.47 34.48 0 0 0 0 0 0 0 0 0 0
296 MW4 17.8 18.37 33.61 0 0 0 0 0 0 0 0 0 0
297 OW1 17.91 16.52 15.21 1 0 0 0 0 0 0 0 0 0
298 HW2 18.66 16.09 15.62 0 0 0 0 0 0 0 0 0 0
299 HW3 17.63 17.17 15.85 0 0 0 0 0 0 0 0 0 0
300 MW4 17.97 16.55 15.35 0 0 0 0 0 0 0 0 0 0
301 OW1 17.18 12.44 16.48 1 0 0 0 0 0 0 0 0 0
302 HW2 16.51 12.06 17.04 0 0 0 0 0 0 0 0 0 0
303 HW3 17.52 11.7 15.97 0 0 0 0 0 0 0 0 0 0
304 MW4 17.14 12.29 16.49 0 0 0 0 0 0 0 0 0 0
305 OW1 22.96 11.97 16.68 1 0 0 0 0 0 0 0 0 0
306 HW2 22.24 11.45 17.05 0 0 0 0 0 0 0 0 0 0
307 HW3 23.56 12.11 17.42 0 0 0 0 0 0 0 0 0 0
308 MW4 22.94 11.92 16.83 0 0 0 0 0 0 0 0 0 0
309 OW1 20.1 15.11 11.3 1 0 0 0 0 0 0 0 0 0
310 HW2 19.67 15.74 11.87 0 0 0 0 0 0 0 0 0 0
311 HW3 20.45 14.44 11.89 0 0 0 0 0 0 0 0 0 0
312 MW4 20.09 15.1 11.46 0 0 0 0 0 0 0 0 0 0
313 OW1 20 15.18 16.47 1 0 0 0 0 0 0 0 0 0
314 HW2 20.77 14.88 15.99 0 0 0 0 0 0 0 0 0 0
315 HW3 19.69 14.4 16.93 0 0 0 0 0 0 0 0 0 0
316 MW4 20.06 15.04 16.47 0 0 0 0 0 0 0 0 0 0
317 OW1 19.02 17.15 12.86 1 0 0 0 0 0 0 0 0 0
318 HW2 19.85 17.63 12.95 0 0 0 0 0 0 0 0 0 0
319 HW3 18.7 17.05 13.75 0 0 0 0 0 0 0 0 0 0
320 MW4 19.09 17.2 12.99 0 0 0 0 0 0 0 0 0 0
321 OW1 16.89 12.16 11.86 1 0 0 0 0 0 0 0 0 0
322 HW2 16.26 12.65 12.39 0 0 0 0 0 0 0 0 0 0
323 HW3 16.35 11.62 11.28 0 0 0 0 0 0 0 0 0 0
324 MW4 16.73 12.16 11.86 0 0 0 0 0 0 0 0 0 0
325 OW1 21.27 12.92 12.6 1 0 0 0 0 0 0 0 0 0
326 HW2 20.6 12.26 12.8 0 0 0 0 0 0 0 0 0 0
327 HW3 21.54 13.24 13.46 0 0 0 0 0 0 0 0 0 0
328 MW4 21.21 12.87 12.74 0 0 0 0 0 0 0 0 0 0
329 OW1 17.85 14.61 20.29 0.94 0 0 0 0 0 0 0 0 0
330 HW2 18.6 14.92 20.8 0 0 0 0 0 0 0 0 0 0
331 HW3 17.49 13.89 20.81 0 0 0 0 0 0 0 0 0 0
332 MW4 17.9 14.55 20.43 0 0 0 0 0 0 0 0 0 0
333 OW1 19.09 13.26 18.16 1 0 0 0 0 0 0 0 0 0
334 HW2 18.67 13.88 18.76 0 0 0 0 0 0 0 0 0 0
335 HW3 18.38 12.95 17.6 0 0 0 0 0 0 0 0 0 0
336 MW4 18.94 13.3 18.17 0 0 0 0 0 0 0 0 0 0
337 OW1 12.4 18.64 59.42 0.98 0 0 0 0 0 0 0 0 0
338 HW2 13.08 17.97 59.5 0 0 0 0 0 0 0 0 0 0
339 HW3 12.31 19.01 60.3 0 0 0 0 0 0 0 0 0 0
340 MW4 12.48 18.6 59.55 0 0 0 0 0 0 0 0 0 0
341 OW1 16.49 25.67 29.46 0 0.2 0 0 0 0 0 0 0 0
342 HW2 15.69 26.2 29.39 0 0 0 0 0 0 0 0 0 0
343 HW3 16.62 25.56 30.4 0 0 0 0 0 0 0 0 0 0
344 MW4 16.4 25.73 29.57 0 0 0 0 0 0 0 0 0 0
345 OW1 21.76 11.1 29.61 0.01 0.01 0 0 0 0 0 0 0 0
346 HW2 21.61 10.28 30.08 0 0 0 0 0 0 0 0 0 0
347 HW3 21.94 11.74 30.3 0 0 0 0 0 0 0 0 0 0
348 MW4 21.77 11.08 29.77 0 0 0 0 0 0 0 0 0 0
349 OW1 33.88 35.28 48.01 0 0.01 0 0 0 0 0 0 0 0
350 HW2 33.72 36.01 48.6 0 0 0 0 0 0 0 0 0 0
351 HW3 34.43 34.67 48.51 0 0 0 0 0 0 0 0 0 0
352 MW4 33.93 35.29 48.15 0 0 0 0 0 0 0 0 0 0
353 OW1 31.87 11.76 30.97 0 0 0 0 0 0 0 0 0 0
354 HW2 30.94 11.86 30.77 0 0 0 0 0 0 0 0 0 0
355 HW3 31.89 11.35 31.83 0 0 0 0 0 0 0 0 0 0
356 MW4 31.75 11.72 31.06 0 0 0 0 0 0 0 0 0 0
357 OW1 1.51 3.44 22.61 0 0.99 0 0 0 0 0 0 0 0
358 HW2 2.24 3.81 22.1 0 0 0 0 0 0 0 0 0 0
359 HW3 1.89 2.69 23.06 0 0 0 0 0 0 0 0 0 0
360 MW4 1.66 3.39 22.6 0 0 0 0 0 0 0 0 0 0
361 OW1 33.19 20.49 34.13 0 0.05 0 0 0 0 0 0 0 0
362 HW2 33.82 19.9 34.54 0 0 0 0 0 0 0 0 0 0
363 HW3 32.9 21.06 34.84 0 0 0 0 0 0 0 0 0 0
364 MW4 33.23 20.49 34.28 0 0 0 0 0 0 0 0 0 0
365 OW1 29.12 30.74 21.78 0.68 0 0 0 0 0 0 0 0 0
366 HW2 28.62 31.03 22.55 0 0 0 0 0 0 0 0 0 0
367 HW3 29.94 30.39 22.14 0 0 0 0 0 0 0 0 0 0
368 MW4 29.16 30.73 21.93 0 0 0 0 0 0 0 0 0 0
369 OW1 5.87 35.29 23.89 0 0.98 0 0 0 0 0 0 0 0
370 HW2 5.43 34.79 24.57 0 0 0 0 0 0 0 0 0 0
371 HW3 6.53 34.69 23.54 0 0 0 0 0 0 0 0 0 0
372 MW4 5.9 35.14 23.94 0 0 0 0 0 0 0 0 0 0
373 OW1 3.14 4.38 59.61 1 0 0 0 0 0 0 0 0 0
374 HW2 3.88 4.74 59.13 0 0 0 0 0 0 0 0 0 0
375 HW3 2.49 5.08 59.61 0 0 0 0 0 0 0 0 0 0
376 MW4 3.15 4.52 59.55 0 0 0 0 0 0 0 0 0 0
377 OW1 14.41 18.29 49.92 0 0.01 0 0 0 0 0 0 0 0
378 HW2 14.73 18.61 49.08 0 0 0 0 0 0 0 0 0 0
379 HW3 14.32 17.35 49.8 0 0 0 0 0 0 0 0 0 0
380 MW4 14.44 18.21 49.79 0 0 0 0 0 0 0 0 0 0
381 OW1 24.23 19.91 25.04 0 0 1 0 0 0 0 0 0 0
382 HW2 24.36 18.99 24.79 0 0 0 0 0 0 0 0 0 0
383 HW3 24.83 20.4 24.48 0 0 0 0 0 0 0 0 0 0
384 MW4 24.33 19.85 24.93 0 0 0 0 0 0 0 0 0 0
385 OW1 10.11 22.31 10.41 1 0 0 0 0 0 0 0 0 0
386 HW2 10.75 21.63 10.2 0 0 0 0 0 0 0 0 0 0
387 HW3 9.8 22.61 9.55 0 0 0 0 0 0 0 0 0 0
388 MW4 10.16 22.26 10.26 0 0 0 0 0 0 0 0 0 0
389 OW1 9.14 23.17 7.87 0.99 0 0 0 0 0 0 0 0 0
390 HW2 8.46 23.85 7.79 0 0 0 0 0 0 0 0 0 0
391 HW3 9.87 23.5 7.34 0 0 0 0 0 0 0 0 0 0
392 MW4 9.15 23.31 7.79 0 0 0 0 0 0 0 0 0 0
393 OW1 6.11 21.88 4.35 0.99 0 0 0 0 0 0 0 0.01 0
394 HW2 5.33 21.36 4.14 0 0 0 0 0 0 0 0 0 0
395 HW3 5.78 22.64 4.82 0 0 0 0 0 0 0 0 0 0
396 MW4 5.96 21.91 4.38 0 0 0 0 0 0 0 0 0 0
397 OW1 5.14 18.34 5.84 1 0 0 0 0 0 0 0 0 0
398 HW2 5.83 18.55 6.47 0 0 0 0 0 0 0 0 0 0
399 HW3 5.46 17.57 5.38 0 0 0 0 0 0 0 0 0 0
400 MW4 5.28 18.26 5.87 0 0 0 0 0 0 0 0 0 0
401 OW1 6.94 19.06 7.73 0.99 0 0 0 0 0 0 0 0.01 0
402 HW2 6.46 19.27 8.53 0 0 0 0 0 0 0 0 0 0
403 HW3 7.15 19.91 7.34 0 0 0 0 0 0 0 0 0 0
404 MW4 6.9 19.2 7.78 0 0 0 0 0 0 0 0 0 0
405 OW1 7.74 21.14 0.62 0.99 0 0 0 0 0 0 0 0 0
406 HW2 7.94 20.42 1.22 0 0 0 0 0 0 0 0 0 0
407 HW3 7.5 21.87 1.18 0 0 0 0 0 0 0 0 0 0
408 MW4 7.74 21.14 0.77 0 0 0 0 0 0 0 0 0 0
409 OW1 10.03 20.26 4.52 1 0 0 0 0 0 0 0 0 0
410 HW2 10.43 19.5 4.95 0 0 0 0 0 0 0 0 0 0
411 HW3 9.38 20.58 5.15 0 0 0 0 0 0 0 0 0 0
412 MW4 9.99 20.2 4.66 0 0 0 0 0 0 0 0 0 0
413 OW1 6.99 23.31 2.11 0.99 0 0 0 0 0 0 0 0.01 0
414 HW2 6.85 22.81 2.92 0 0 0 0 0 0 0 0 0 0
415 HW3 7.71 23.91 2.31 0 0 0 0 0 0 0 0 0 0
416 MW4 7.07 23.32 2.25 0 0 0 0 0 0 0 0 0 0
417 OW1 5.17 18.04 0.53 1 0 0 0 0 0 0 0 0 0
418 HW2 4.66 17.46 62.96 0 0 0 0 0 0 0 0 0 0
419 HW3 5.41 18.78 62.98 0 0 0 0 0 0 0 0 0 0
420 MW4 5.13 18.06 0.38 0 0 0 0 0 0 0 0 0 0
421 OW1 8.61 19.14 2.37 0.99 0 0 0 0 0 0 0 0.01 0
422 HW2 9.08 19.39 3.17 0 0 0 0 0 0 0 0 0 0
423 HW3 9.3 18.94 1.74 0 0 0 0 0 0 0 0 0 0
424 MW4 8.76 19.15 2.39 0 0 0 0 0 0 0 0 0 0
425 OW1 5.82 19.93 10.05 1 0 0 0 0 0 0 0 0 0
426 HW2 5.43 19.32 10.68 0 0 0 0 0 0 0 0 0 0
427 HW3 6.49 20.4 10.56 0 0 0 0 0 0 0 0 0 0
428 MW4 5.86 19.91 10.21 0 0 0 0 0 0 0 0 0 0
429 OW1 8.02 21.04 6.29 1 0 0 0 0 0 0 0 0 0
430 HW2 8.32 21.77 6.83 0 0 0 0 0 0 0 0 0 0
431 HW3 7.45 21.45 5.64 0 0 0 0 0 0 0 0 0 0
432 MW4 7.98 21.2 6.28 0 0 0 0 0 0 0 0 0 0
433 OW1 18.35 22.32 44.15 0 0 0 0 0 0 0 0 0 0
434 HW2 17.78 21.99 43.46 0 0 0 0 0 0 0 0 0 0
435 HW3 18.39 23.26 44.01 0 0 0 0 0 0 0 0 0 0
436 MW4 18.28 22.4 44.04 0 0 0 0 0 0 0 0 0 0
437 OW1 6.28 29.29 23.85 0 0.97 0 0 0 0 0 0 0 0
438 HW2 5.63 28.87 24.43 0 0 0 0 0 0 0 0 0 0
439 HW3 5.75 29.83 23.26 0 0 0 0 0 0 0 0 0 0
440 MW4 6.12 29.31 23.85 0 0 0 0 0 0 0 0 0 0
441 OW1 22.75 8.21 45.37 0 0 0 0 0 0 0 0 0 0
442 HW2 23.69 8.13 45.52 0 0 0 0 0 0 0 0 0 0
443 HW3 22.45 8.79 46.07 0 0 0 0 0 0 0 0 0 0
444 MW4 22.84 8.28 45.49 0 0 0 0 0 0 0 0 0 0
445 OW1 19.28 35.82 40.34 0 0 0 0 0 0 0 0 0 0
446 HW2 18.93 35.02 39.96 0 0 0 0 0 0 0 0 0 0
447 HW3 19.78 36.23 39.63 0 0 0 0 0 0 0 0 0 0
448 MW4 19.3 35.76 40.2 0 0 0 0 0 0 0 0 0 0
449 OW1 35.21 24.63 22.84 0 1 0 0 0 0 0 0 0 0
450 HW2 34.74 25.15 23.49 0 0 0 0 0 0 0 0 0 0
451 HW3 35.6 23.92 23.35 0 0 0 0 0 0 0 0 0 0
452 MW4 35.2 24.6 23 0 0 0 0 0 0 0 0 0 0
453 OW1 36.37 22.52 24.33 0 0.98 0 0 0 0 0 0 0 0
454 HW2 35.96 22.01 25.02 0 0 0 0 0 0 0 0 0 0
455 HW3 0.34 21.88 23.8 0 0 0 0 0 0 0 0 0 0
456 MW4 36.38 22.37 24.35 0 0 0 0 0 0 0 0 0 0
457 OW1 28.41 0.22 42.83 0 0 0 0 0 0 0 0 0 0
458 HW2 27.78 36.01 42.98 0 0 0 0 0 0 0 0 0 0
459 HW3 28.11 0.62 42.01 0 0 0 0 0 0 0 0 0 0
460 MW4 28.28 0.18 42.74 0 0 0 0 0 0 0 0 0 0
461 OW1 22.85 21.52 51.29 0 0.18 0.02 0 0 0 0 0 0 0
462 HW2 21.9 21.57 51.41 0 0 0 0 0 0 0 0 0 0
463 HW3 22.97 21.43 50.34 0 0 0 0 0 0 0 0 0 0
464 MW4 22.74 21.51 51.18 0 0 0 0 0 0 0 0 0 0
465 OW1 17.81 22.33 30.92 0 0.01 0 0 0 0 0 0 0 0
466 HW2 18.33 22.18 30.13 0 0 0 0 0 0 0 0 0 0
467 HW3 18.43 22.22 31.64 0 0 0 0 0 0 0 0 0 0
468 MW4 17.97 22.29 30.91 0 0 0 0 0 0 0 0 0 0
469 OW1 29.19 23.7 39.07 0 0.03 0.01 0 0 0 0 0 0 0
470 HW2 28.45 23.15 38.8 0 0 0 0 0 0 0 0 0 0
471 HW3 29.9 23.07 39.22 0 0 0 0 0 0 0 0 0 0
472 MW4 29.19 23.54 39.05 0 0 0 0 0 0 0 0 0 0
473 OW1 11.19 18.54 30.98 0 0 0 0 0 0 0 0 0 0
474 HW2 11.59 19.34 31.32 0 0 0 0 0 0 0 0 0 0
475 HW3 10.27 18.77 30.84 0 0 0 0 0 0 0 0 0 0
476 MW4 11.12 18.68 31.01 0 0 0 0 0 0 0 0 0 0
477 OW1 16.93 30.32 57.47 0.97 0 0 0 0 0 0 0 0 0
478 HW2 16.31 29.95 58.1 0 0 0 0 0 0 0 0 0 0
479 HW3 17.26 29.56 57 0 0 0 0 0 0 0 0 0 0
480 MW4 16.89 30.16 57.49 0 0 0 0 0 0 0 0 0 0
481 OW1 31.3 0.71 59.25 0.97 0 0 0 0 0 0 0 0 0
482 HW2 30.48 0.55 58.78 0 0 0 0 0 0 0 0 0 0
483 HW3 31.54 1.61 59.02 0 0 0 0 0 0 0 0 0 0
484 MW4 31.22 0.81 59.16 0 0 0 0 0 0 0 0 0 0
485 OW1 14.41 16.81 59.56 0.94 0 0 0 0 0 0 0 0 0
486 HW2 14.95 17.32 58.96 0 0 0 0 0 0 0 0 0 0
487 HW3 14.2 16.01 59.08 0 0 0 0 0 0 0 0 0 0
488 MW4 14.45 16.77 59.42 0 0 0 0 0 0 0 0 0 0
489 OW1 11.15 24.97 22.1 0.01 0.7 0 0 0 0 0 0 0 0
490 HW2 10.78 24.24 21.6 0 0 0 0 0 0 0 0 0 0
491 HW3 11.6 24.56 22.84 0 0 0 0 0 0 0 0 0 0
492 MW4 11.16 24.82 22.13 0 0 0 0 0 0 0 0 0 0
493 OW1 28.72 5.05 51.02 0 0 0 0 0 0 0 0 0 0
494 HW2 28.9 4.28 51.57 0 0 0 0 0 0 0 0 0 0
495 HW3 28.06 5.54 51.51 0 0 0 0 0 0 0 0 0 0
496 MW4 28.66 5.01 51.16 0 0 0 0 0 0 0 0 0 0
497 OW1 10.74 16.98 49.55 0 0 0 0 0 0 0 0 0 0
498 HW2 10.68 16.69 50.46 0 0 0 0 0 0 0 0 0 0
499 HW3 11.12 17.85 49.6 0 0 0 0 0 0 0 0 0 0
500 MW4 10.78 17.05 49.68 0 0 0 0 0 0 0 0 0 0
501 OW1 4.09 5.97 50.85 0 0 0 0 0 0 0 0 0 0
502 HW2 5.02 5.93 51.08 0 0 0 0 0 0 0 0 0 0
503 HW3 4.07 5.79 49.91 0 0 0 0 0 0 0 0 0 0
504 MW4 4.21 5.94 50.75 0 0 0 0 0 0 0 0 0 0
505 OW1 2.45 0.12 31.46 0 0.68 0 0 0 0 0 0 0 0
506 HW2 1.93 0.57 30.8 0 0 0 0 0 0 0 0 0 0
507 HW3 1.82 36.11 31.96 0 0 0 0 0 0 0 0 0 0
508 MW4 2.3 0.11 31.44 0 0 0 0 0 0 0 0 0 0
509 OW1 7.37 0.49 25.68 0 0.94 0 0 0 0 0 0 0 0
510 HW2 6.79 0.88 26.34 0 0 0 0 0 0 0 0 0 0
511 HW3 6.82 36.34 25.24 0 0 0 0 0 0 0 0 0 0
512 MW4 7.21 0.46 25.71 0 0 0 0 0 0 0 0 0 0
513 OW1 34.57 10.43 52.77 0 0 0 0 0 0 0 0 0 0
514 HW2 34.52 9.5 52.96 0 0 0 0 0 0 0 0 0 0
515 HW3 34.57 10.86 53.63 0 0 0 0 0 0 0 0 0 0
516 MW4 34.56 10.36 52.91 0 0 0 0 0 0 0 0 0 0
517 OW1 32.42 7.42 55.64 0.04 0.03 0 0 0 0 0 0 0 0
518 HW2 33.08 7.46 54.94 0 0 0 0 0 0 0 0 0 0
519 HW3 31.89 6.66 55.42 0 0 0 0 0 0 0 0 0 0
520 MW4 32.44 7.32 55.52 0 0 0 0 0 0 0 0 0 0
521 OW1 18.14 7.86 61.46 0.99 0 0 0 0 0 0 0 0 0
522 HW2 17.67 7.28 62.07 0 0 0 0 0 0 0 0 0 0
523 HW3 17.55 8.6 61.33 0 0 0 0 0 0 0 0 0 0
524 MW4 18 7.88 61.53 0 0 0 0 0 0 0 0 0 0
525 OW1 23.4 1.67 41.52 0 0 0 0 0 0 0 0 0 0
526 HW2 23.72 0.77 41.51 0 0 0 0 0 0 0 0 0 0
527 HW3 22.52 1.61 41.89 0 0 0 0 0 0 0 0 0 0
528 MW4 23.33 1.54 41.57 0 0 0 0 0 0 0 0 0 0
529 OW1 32.23 15.49 16.48 0.97 0 0 0 0 0 0 0 0 0
530 HW2 32.9 15.08 15.94 0 0 0 0 0 0 0 0 0 0
531 HW3 32.7 16.16 16.99 0 0 0 0 0 0 0 0 0 0
532 MW4 32.38 15.53 16.48 0 0 0 0 0 0 0 0 0 0
533 OW1 31.92 4 53.43 0.02 0 0 0 0 0 0 0 0 0
534 HW2 32.3 4.52 52.72 0 0 0 0 0 0 0 0 0 0
535 HW3 31.26 3.46 53 0 0 0 0 0 0 0 0 0 0
536 MW4 31.88 4 53.28 0 0 0 0 0 0 0 0 0 0
537 OW1 19.55 0.63 59.35 0.99 0 0 0 0 0 0 0 0 0
538 HW2 19.24 0.99 60.19 0 0 0 0 0 0 0 0 0 0
539 HW3 18.75 0.41 58.88 0 0 0 0 0 0 0 0 0 0
540 MW4 19.4 0.65 59.4 0 0 0 0 0 0 0 0 0 0
541 OW1 36.12 10.9 23.68 0 0.86 0 0 0 0 0 0 0 0
542 HW2 0.24 10.42 23.13 0 0 0 0 0 0 0 0 0 0
543 HW3 0.16 11.39 24.3 0 0 0 0 0 0 0 0 0 0
544 MW4 36.27 10.9 23.69 0 0 0 0 0 0 0 0 0 0
545 OW1 34.32 19.17 53.71 0 0 0 0 0 0 0 0 0 0
546 HW2 33.62 19.7 53.34 0 0 0 0 0 0 0 0 0 0
547 HW3 35.1 19.43 53.23 0 0 0 0 0 0 0 0 0 0
548 MW4 34.33 19.28 53.6 0 0 0 0 0 0 0 0 0 0
549 OW1 32.71 21.69 25.06 0 0.02 0 0 0 0 0 0 0 0
550 HW2 32.57 22.1 24.21 0 0 0 0 0 0 0 0 0 0
551 HW3 32.06 22.09 25.63 0 0 0 0 0 0 0 0 0 0
552 MW4 32.6 21.8 25.02 0 0 0 0 0 0 0 0 0 0
553 OW1 3.68 25.81 34.81 0 0.01 0 0 0 0 0 0 0 0
554 HW2 2.95 25.92 35.43 0 0 0 0 0 0 0 0 0 0
555 HW3 3.47 26.41 34.09 0 0 0 0 0 0 0 0 0 0
556 MW4 3.55 25.91 34.79 0 0 0 0 0 0 0 0 0 0
557 OW1 18.72 6.26 40.72 0 0 0 0 0 0 0 0 0 0
558 HW2 17.88 6.03 41.11 0 0 0 0 0 0 0 0 0 0
559 HW3 19.23 5.44 40.74 0 0 0 0 0 0 0 0 0 0
560 MW4 18.68 6.12 40.77 0 0 0 0 0 0 0 0 0 0
561 OW1 18.59 9.47 51.7 0.01 0 0 0 0 0 0 0 0 0
562 HW2 19.26 8.78 51.73 0 0 0 0 0 0 0 0 0 0
563 HW3 18.1 9.37 52.51 0 0 0 0 0 0 0 0 0 0
564 MW4 18.62 9.37 51.81 0 0 0 0 0 0 0 0 0 0
565 OW1 30.28 20.93 48.4 0.02 0.24 0 0 0 0 0 0 0 0
566 HW2 30.7 21.45 47.71 0 0 0 0 0 0 0 0 0 0
567 HW3 31 20.65 48.96 0 0 0 0 0 0 0 0 0 0
568 MW4 30.44 20.96 48.38 0 0 0 0 0 0 0 0 0 0
569 OW1 17.28 18.9 21.93 0 0 0.97 0 0 0 0 0 0 0
570 HW2 16.8 18.14 21.6 0 0 0 0 0 0 0 0 0 0
571 HW3 16.61 19.49 22.25 0 0 0 0 0 0 0 0 0 0
572 MW4 17.13 18.88 21.93 0 0 0 0 0 0 0 0 0 0
573 OW1 12.96 3.75 29.45 0 0.08 0 0 0 0 0 0 0 0
574 HW2 12.78 2.94 28.97 0 0 0 0 0 0 0 0 0 0
575 HW3 12.41 4.41 29.02 0 0 0 0 0 0 0 0 0 0
576 MW4 12.86 3.73 29.33 0 0 0 0 0 0 0 0 0 0
577 OW1 28.74 24 28.13 0 0 0 0 0 0 0 0 0 0
578 HW2 28.85 24.81 28.63 0 0 0 0 0 0 0 0 0 0
579 HW3 27.89 24.11 27.68 0 0 0 0 0 0 0 0 0 0
580 MW4 28.64 24.13 28.14 0 0 0 0 0 0 0 0 0 0
581 OW1 3.42 22.23 52.55 0 0.06 0.01 0 0 0 0 0 0 0
582 HW2 3.58 23.09 52.93 0 0 0 0 0 0 0 0 0 0
583 HW3 3.95 21.63 53.07 0 0 0 0 0 0 0 0 0 0
584 MW4 3.51 22.26 52.67 0 0 0 0 0 0 0 0 0 0
585 OW1 12.49 15.29 52.35 0 0.01 0 0 0 0 0 0 0 0
586 HW2 11.57 15.35 52.11 0 0 0 0 0 0 0 0 0 0
587 HW3 12.95 15.21 51.51 0 0 0 0 0 0 0 0 0 0
588 MW4 12.43 15.29 52.21 0 0 0 0 0 0 0 0 0 0
589 OW1 25.92 1.15 33.48 0 0 0 0 0 0 0 0 0 0
590 HW2 25.54 1 32.61 0 0 0 0 0 0 0 0 0 0
591 HW3 26.85 1.32 33.31 0 0 0 0 0 0 0 0 0 0
592 MW4 25.99 1.16 33.34 0 0 0 0 0 0 0 0 0 0
593 OW1 0.59 28.66 36.74 0.01 0 0 0 0 0 0 0 0 0
594 HW2 0.74 28.91 35.83 0 0 0 0 0 0 0 0 0 0
595 HW3 36.42 29.27 37.05 0 0 0 0 0 0 0 0 0 0
596 MW4 0.52 28.77 36.66 0 0 0 0 0 0 0 0 0 0
597 OW1 5.26 13.56 41.73 0 0 0 0 0 0 0 0 0 0
598 HW2 5.78 14.33 41.96 0 0 0 0 0 0 0 0 0 0
599 HW3 4.36 13.9 41.63 0 0 0 0 0 0 0 0 0 0
600 MW4 5.21 13.71 41.75 0 0 0 0 0 0 0 0 0 0
601 OW1 5.08 6.09 16.8 1 0 0 0 0 0 0 0 0 0
602 HW2 4.83 6.83 16.25 0 0 0 0 0 0 0 0 0 0
603 HW3 5.22 5.37 16.19 0 0 0 0 0 0 0 0 0 0
604 MW4 5.07 6.09 16.65 0 0 0 0 0 0 0 0 0 0
605 OW1 21.35 1.9 46.08 0 0 0 0 0 0 0 0 0 0
606 HW2 22.19 1.9 46.54 0 0 0 0 0 0 0 0 0 0
607 HW3 20.7 1.74 46.77 0 0 0 0 0 0 0 0 0 0
608 MW4 21.38 1.88 46.23 0 0 0 0 0 0 0 0 0 0
609 OW1 4.41 32.09 43.3 0 0.31 0 0 0 0 0 0 0 0
610 HW2 5.1 32.21 42.66 0 0 0 0 0 0 0 0 0 0
611 HW3 3.6 32.08 42.79 0 0 0 0 0 0 0 0 0 0
612 MW4 4.39 32.1 43.15 0 0 0 0 0 0 0 0 0 0
613 OW1 4.81 6.79 28.45 0 0.99 0 0 0 0 0 0 0 0
614 HW2 4.18 7.23 29.02 0 0 0 0 0 0 0 0 0 0
615 HW3 4.29 6.14 27.97 0 0 0 0 0 0 0 0 0 0
616 MW4 4.65 6.76 28.46 0 0 0 0 0 0 0 0 0 0
617 OW1 3.58 7.66 38.47 0.1 0.02 0 0 0 0 0 0 0 0
618 HW2 3.21 7.43 39.32 0 0 0 0 0 0 0 0 0 0
619 HW3 4.47 7.95 38.66 0 0 0 0 0 0 0 0 0 0
620 MW4 3.65 7.66 38.61 0 0 0 0 0 0 0 0 0 0
621 OW1 28.97 6.2 30.23 0 0 0 0 0 0 0 0 0 0
622 HW2 29.41 7.05 30.24 0 0 0 0 0 0 0 0 0 0
623 HW3 28.42 6.23 29.45 0 0 0 0 0 0 0 0 0 0
624 MW4 28.96 6.32 30.13 0 0 0 0 0 0 0 0 0 0
625 OW1 9.29 1.76 23.95 0 0.76 0 0 0 0 0 0 0 0
626 HW2 8.64 1.45 24.58 0 0 0 0 0 0 0 0 0 0
627 HW3 8.87 2.51 23.53 0 0 0 0 0 0 0 0 0 0
628 MW4 9.15 1.82 23.98 0 0 0 0 0 0 0 0 0 0
629 OW1 9.1 5.44 18.4 1 0 0 0 0 0 0 0 0 0
630 HW2 8.64 4.74 17.94 0 0 0 0 0 0 0 0 0 0
631 HW3 8.48 6.16 18.43 0 0 0 0 0 0 0 0 0 0
632 MW4 8.96 5.44 18.34 0 0 0 0 0 0 0 0 0 0
633 OW1 5.74 3.93 15.52 1 0 0 0 0 0 0 0 0 0
634 HW2 5.04 3.31 15.3 0 0 0 0 0 0 0 0 0 0
635 HW3 6.01 4.3 14.68 0 0 0 0 0 0 0 0 0 0
636 MW4 5.68 3.89 15.38 0 0 0 0 0 0 0 0 0 0
637 OW1 2.68 35.66 18.06 1 0 0 0 0 0 0 0 0 0
638 HW2 2.02 36.36 18.12 0 0 0 0 0 0 0 0 0 0
639 HW3 2.21 34.93 17.65 0 0 0 0 0 0 0 0 0 0
640 MW4 2.53 35.66 18.01 0 0 0 0 0 0 0 0 0 0
641 OW1 4.9 0.06 16.73 1 0 0 0 0 0 0 0 0 0
642 HW2 4.14 36.38 17.29 0 0 0 0 0 0 0 0 0 0
643 HW3 5.52 0.49 17.3 0 0 0 0 0 0 0 0 0 0
644 MW4 4.88 0.09 16.88 0 0 0 0 0 0 0 0 0 0
645 OW1 7.82 3.06 11.52 1 0 0 0 0 0 0 0 0 0
646 HW2 8.44 3.39 10.87 0 0 0 0 0 0 0 0 0 0
647 HW3 8.32 2.41 12.02 0 0 0 0 0 0 0 0 0 0
648 MW4 7.97 3.01 11.5 0 0 0 0 0 0 0 0 0 0
649 OW1 9.66 2.28 15.23 1 0 0 0 0 0 0 0 0 0
650 HW2 10.42 2.84 15.08 0 0 0 0 0 0 0 0 0 0
651 HW3 9.13 2.75 15.86 0 0 0 0 0 0 0 0 0 0
652 MW4 9.69 2.42 15.29 0 0 0 0 0 0 0 0 0 0
653 OW1 6.74 4.96 13.26 0.99 0 0 0 0 0 0 0 0.01 0
654 HW2 7.26 4.26 12.84 0 0 0 0 0 0 0 0 0 0
655 HW3 6.04 5.13 12.63 0 0 0 0 0 0 0 0 0 0
656 MW4 6.72 4.89 13.12 0 0 0 0 0 0 0 0 0 0
657 OW1 4.6 0 11.65 1 0 0 0 0 0 0 0 0 0
658 HW2 4.35 35.85 11 0 0 0 0 0 0 0 0 0 0
659 HW3 5.46 36.21 11.97 0 0 0 0 0 0 0 0 0 0