ITEM: TIMESTEP
0
ITEM: NUMBER OF ATOMS
10368
ITEM: BOX BOUNDS pp pp pp
0 36.4986
0 36.4986
0 62.9993
ITEM: ATOMS id type xu yu zu ice17 ice1c ice1h ice2 ice3 ice4 ice5 ice6 ice7 ice20
1    OW1 3.56 0.07 42.34
2    HW2 3.48 1.02 42.49
3    HW3 4.24 36.49 41.68
4    MW4 3.64 0.19 42.27
5    OW1 2.36 22.91 44
6    HW2 2.13 23.2 44.89
7    HW3 1.61 23.17 43.47
8    MW4 2.23 22.99 44.05
9    OW1 6.78 15.84 48.07
10    HW2 7.45 16.51 48.18
11    HW3 6.99 15.19 48.73
12    MW4 6.9 15.84 48.17
13    OW1 33.2 5.34 18.16
14    HW2 33.9 5.7 17.62
15    HW3 32.87 4.6 17.66
16    MW4 33.25 5.29 18.02
17    OW1 20.53 8.33 30.06
18    HW2 19.96 7.73 29.57
19    HW3 20.27 8.21 30.97
20    MW4 20.42 8.23 30.12
21    OW1 7.61 3 29.56
22    HW2 7.12 3.68 30.03
23    HW3 8.13 3.48 28.91
24    MW4 7.62 3.16 29.54
25    OW1 28.5 19.31 46.99
26    HW2 29.1 19.95 47.37
27    HW3 27.88 19.84 46.48
28    MW4 28.5 19.47 46.97
29    OW1 34.88 17.2 48.14
30    HW2 35.39 17.64 48.82
31    HW3 33.97 17.3 48.42
32    MW4 34.82 17.27 48.27
33    OW1 35.97 19.11 27.49
34    HW2 0.09 18.71 26.89
35    HW3 35.73 19.94 27.07
36    MW4 36.02 19.17 27.35
37    OW1 24.95 20.07 27.79
38    HW2 24.61 20.02 26.89
39    HW3 24.3 19.61 28.32
40    MW4 24.81 20 27.74
41    OW1 13.55 27.77 31.71
42    HW2 13.58 27.6 30.77
43    HW3 13.19 28.66 31.78
44    MW4 13.51 27.87 31.59
45    OW1 34.72 18.03 22.68
46    HW2 34.06 18.27 23.31
47    HW3 35.37 17.54 23.19
48    MW4 34.72 17.99 22.83
49    OW1 1.73 3.99 29.27
50    HW2 0.97 4.37 29.72
51    HW3 2.44 4.06 29.9
52    MW4 1.72 4.05 29.42
53    OW1 20.11 19.78 42.26
54    HW2 20.48 20.31 42.96
55    HW3 19.3 19.42 42.63
56    MW4 20.05 19.81 42.4
57    OW1 3.87 18.42 46.19
58    HW2 4.16 18.26 47.09
59    HW3 2.91 18.38 46.23
60    MW4 3.78 18.39 46.31
61    OW1 9.08 19.62 46.42
62    HW2 10.04 19.64 46.45
63    HW3 8.83 19.17 47.23
64    MW4 9.18 19.56 46.53
65    OW1 11.58 25.29 49.44
66    HW2 12.33 25.86 49.61
67    HW3 11.81 24.83 48.63
68    MW4 11.71 25.3 49.35
69    OW1 28.57 30.44 30.43
70    HW2 29.1 29.74 30.05
71    HW3 28.22 30.07 31.24
72    MW4 28.59 30.3 30.49
73    OW1 33.31 1.83 23.55
74    HW2 32.87 2.52 23.05
75    HW3 33.68 2.29 24.3
76    MW4 33.3 1.99 23.59
77    OW1 21.41 17.13 27.2
78    HW2 21.24 17.74 26.48
79    HW3 22.07 16.53 26.86
80    MW4 21.48 17.13 27.06
81    OW1 23.27 24.81 23.61
82    HW2 22.8 25.42 23.06
83    HW3 22.58 24.27 24.01
84    MW4 23.11 24.82 23.59
85    OW1 33.35 31.7 23.61
86    HW2 32.56 31.2 23.84
87    HW3 33.02 32.44 23.1
88    MW4 33.2 31.74 23.58
89    OW1 7.74 9.32 22.06
90    HW2 8.07 8.6 22.61
91    HW3 8.53 9.74 21.72
92    MW4 7.89 9.28 22.09
93    OW1 4.79 9.4 25.73
94    HW2 5.54 8.91 26.06
95    HW3 5.16 10 25.09
96    MW4 4.94 9.41 25.69
97    OW1 22.04 34.27 9.49
98    HW2 22.77 33.65 9.49
99    HW3 22.41 35.09 9.82
100    MW4 22.19 34.3 9.53
101    OW1 21.3 35.08 6.97
102    HW2 21 34.26 6.58
103    HW3 21.71 34.82 7.8
104    MW4 21.32 34.93 7.03
105    OW1 18.51 34.18 4.42
106    HW2 18.1 34.92 4.86
107    HW3 18.95 34.56 3.66
108    MW4 18.51 34.33 4.38
109    OW1 16.75 30.23 5.5
110    HW2 16 30.1 6.07
111    HW3 17.49 30.31 6.09
112    MW4 16.75 30.23 5.65
113    OW1 18.78 30.76 7.27
114    HW2 18.54 31.15 8.1
115    HW3 19.39 31.39 6.88
116    MW4 18.83 30.9 7.33
117    OW1 20.15 33.04 0.25
118    HW2 19.92 33.65 0.94
119    HW3 20.85 33.47 62.76
120    MW4 20.21 33.18 0.28
121    OW1 22.3 31.91 3.91
122    HW2 22.94 32.59 3.67
123    HW3 22.76 31.36 4.54
124    MW4 22.45 31.93 3.96
125    OW1 19.4 35.11 2.03
126    HW2 18.58 35.54 1.77
127    HW3 19.96 35.82 2.33
128    MW4 19.36 35.26 2.03
129    OW1 16.58 30.27 0.44
130    HW2 16.92 30.98 62.88
131    HW3 16.44 29.54 62.83
132    MW4 16.61 30.27 0.28
133    OW1 20.98 30.69 1.76
134    HW2 21.41 31.04 2.53
135    HW3 20.7 31.46 1.27
136    MW4 21 30.84 1.79
137    OW1 18 31.98 9.72
138    HW2 17.55 31.27 10.19
139    HW3 17.33 32.65 9.58
140    MW4 17.85 31.97 9.77
141    OW1 20.43 32.8 5.97
142    HW2 19.69 33.16 5.48
143    HW3 21.06 32.54 5.31
144    MW4 20.41 32.81 5.82
145    OW1 36.39 21.85 56.06
146    HW2 36.03 22.65 56.44
147    HW3 0.17 22.1 55.18
148    MW4 36.38 21.99 55.99
149    OW1 30.67 28.56 48.69
150    HW2 30.44 29.35 48.19
151    HW3 31.6 28.44 48.53
152    MW4 30.76 28.65 48.6
153    OW1 24.26 4.68 14.87
154    HW2 24.55 4.9 13.98
155    HW3 23.61 4 14.75
156    MW4 24.21 4.62 14.73
157    OW1 23.14 0.45 16.25
158    HW2 23.25 36.22 15.64
159    HW3 22.33 0.25 16.72
160    MW4 23.05 0.33 16.23
161    OW1 25.41 1.13 18.04
162    HW2 24.77 0.77 17.43
163    HW3 25.77 1.9 17.59
164    MW4 25.37 1.19 17.89
165    OW1 26.24 3.34 10.68
166    HW2 26.5 2.6 11.23
167    HW3 25.63 2.96 10.05
168    MW4 26.19 3.19 10.67
169    OW1 26.1 3.29 16.52
170    HW2 26.48 4.08 16.91
171    HW3 25.47 3.62 15.87
172    MW4 26.06 3.44 16.49
173    OW1 25.28 5.25 12.26
174    HW2 25.9 5.97 12.24
175    HW3 25.63 4.6 11.66
176    MW4 25.41 5.26 12.18
177    OW1 22.89 0.05 10.47
178    HW2 23.61 36.49 11.11
179    HW3 22.17 0.44 10.96
180    MW4 22.89 0.1 10.63
181    OW1 27.21 1.26 12.09
182    HW2 26.5 0.64 12.25
183    HW3 27.5 1.52 12.96
184    MW4 27.16 1.21 12.23
185    OW1 0.97 36.47 25.61
186    HW2 1.65 0.29 25.01
187    HW3 0.38 35.96 25.06
188    MW4 0.98 36.44 25.46
189    OW1 27.98 2.22 14.67
190    HW2 27.35 2.56 15.31
191    HW3 28.66 2.89 14.63
192    MW4 27.99 2.36 14.75
193    OW1 18.91 13.97 59.14
194    HW2 18.42 13.2 58.84
195    HW3 18.56 14.14 60.02
196    MW4 18.8 13.89 59.22
197    OW1 0.59 17.94 29.75
198    HW2 0.24 18.58 29.12
199    HW3 0.36 17.09 29.39
200    MW4 0.51 17.91 29.62
201    OW1 8.3 9.39 29.27
202    HW2 8.87 9.87 28.67
203    HW3 8.9 8.86 29.8
204    MW4 8.46 9.38 29.26
205    OW1 13.06 29.74 24.44
206    HW2 13.33 30.45 25.03
207    HW3 13.86 29.5 23.97
208    MW4 13.2 29.81 24.46
209    OW1 35.69 7.47 35.04
210    HW2 35.63 6.94 35.83
211    HW3 0.02 7.2 34.63
212    MW4 35.79 7.37 35.09
213    OW1 0.81 36.05 41.43
214    HW2 0.21 35.94 42.17
215    HW3 1.68 36.03 41.84
216    MW4 0.85 36.03 41.59
217    OW1 24.73 36.41 47.82
218    HW2 24.26 0.72 48.04
219    HW3 25.57 36.49 48.26
220    MW4 24.78 0.03 47.91
221    OW1 20.21 20.8 58.36
222    HW2 19.54 20.87 57.68
223    HW3 20.88 20.23 57.98
224    MW4 20.21 20.73 58.22
225    OW1 36.47 28.38 41.26
226    HW2 0.06 27.47 40.99
227    HW3 36.35 28.33 42.21
228    MW4 36.46 28.25 41.35
229    OW1 7.27 17.44 30.16
230    HW2 6.38 17.68 29.87
231    HW3 7.14 16.97 30.98
232    MW4 7.13 17.41 30.23
233    OW1 16.59 21.01 42.33
234    HW2 15.69 21.29 42.16
235    HW3 17.1 21.42 41.63
236    MW4 16.54 21.1 42.21
237    OW1 10.03 13.48 56.78
238    HW2 9.29 13.95 57.16
239    HW3 10.63 14.17 56.49
240    MW4 10.01 13.64 56.79
241    OW1 8.35 11.36 50.08
242    HW2 9.13 10.87 50.32
243    HW3 7.85 11.44 50.89
244    MW4 8.38 11.3 50.22
245    OW1 6.95 18.95 59.61
246    HW2 6.2 18.7 59.06
247    HW3 6.54 19.3 60.4
248    MW4 6.79 18.96 59.64
249    OW1 10.06 7.35 51.05
250    HW2 10.51 6.88 50.36
251    HW3 9.14 7.37 50.77
252    MW4 9.99 7.29 50.92
253    OW1 22.35 34.65 45.55
254    HW2 23.16 35.16 45.47
255    HW3 22.54 33.84 45.08
256    MW4 22.48 34.61 45.48
257    OW1 27.17 17.57 48.73
258    HW2 27.35 17.76 49.65
259    HW3 27.67 18.23 48.25
260    MW4 27.26 17.68 48.79
261    OW1 0.08 22.62 33.07
262    HW2 0.06 23.44 33.56
263    HW3 0.91 22.65 32.59
264    MW4 0.19 22.74 33.07
265    OW1 19.14 34.89 36.04
266    HW2 18.43 35.18 36.62
267    HW3 18.91 35.25 35.18
268    MW4 19.01 34.98 36
269    OW1 7.85 9.53 37.28
270    HW2 7.42 10.3 37.65
271    HW3 8.76 9.59 37.59
272    MW4 7.92 9.64 37.37
273    OW1 28.81 18.55 23.68
274    HW2 28.34 17.73 23.84
275    HW3 29.59 18.28 23.2
276    MW4 28.85 18.4 23.64
277    OW1 10.71 5.99 44.37
278    HW2 9.98 5.85 43.76
279    HW3 11.39 6.42 43.83
280    MW4 10.71 6.03 44.21
281    OW1 15.99 10.22 41.67
282    HW2 16.94 10.18 41.78
283    HW3 15.79 11.16 41.65
284    MW4 16.09 10.34 41.68
285    OW1 32.97 31.67 49.15
286    HW2 32.21 32.25 49.11
287    HW3 33.17 31.48 48.23
288    MW4 32.89 31.72 49.02
289    OW1 29.56 14.63 19.89
290    HW2 30.13 15.16 20.46
291    HW3 29.17 13.99 20.48
292    MW4 29.59 14.62 20.05
293    OW1 17.94 18.36 33.54
294    HW2 17.07 18.37 33.14
295    HW3 17.77 18.47 34.48
296    MW4 17.8 18.37 33.61
297    OW1 17.91 16.52 15.21
298    HW2 18.66 16.09 15.62
299    HW3 17.63 17.17 15.85
300    MW4 17.97 16.55 15.35
301    OW1 17.18 12.44 16.48
302    HW2 16.51 12.06 17.04
303    HW3 17.52 11.7 15.97
304    MW4 17.14 12.29 16.49
305    OW1 22.96 11.97 16.68
306    HW2 22.24 11.45 17.05
307    HW3 23.56 12.11 17.42
308    MW4 22.94 11.92 16.83
309    OW1 20.1 15.11 11.3
310    HW2 19.67 15.74 11.87
311    HW3 20.45 14.44 11.89
312    MW4 20.09 15.1 11.46
313    OW1 20 15.18 16.47
314    HW2 20.77 14.88 15.99
315    HW3 19.69 14.4 16.93
316    MW4 20.06 15.04 16.47
317    OW1 19.02 17.15 12.86
318    HW2 19.85 17.63 12.95
319    HW3 18.7 17.05 13.75
320    MW4 19.09 17.2 12.99
321    OW1 16.89 12.16 11.86
322    HW2 16.26 12.65 12.39
323    HW3 16.35 11.62 11.28
324    MW4 16.73 12.16 11.86
325    OW1 21.27 12.92 12.6
326    HW2 20.6 12.26 12.8
327    HW3 21.54 13.24 13.46
328    MW4 21.21 12.87 12.74
329    OW1 17.85 14.61 20.29
330    HW2 18.6 14.92 20.8
331    HW3 17.49 13.89 20.81
332    MW4 17.9 14.55 20.43
333    OW1 19.09 13.26 18.16
334    HW2 18.67 13.88 18.76
335    HW3 18.38 12.95 17.6
336    MW4 18.94 13.3 18.17
337    OW1 12.4 18.64 59.42
338    HW2 13.08 17.97 59.5
339    HW3 12.31 19.01 60.3
340    MW4 12.48 18.6 59.55
341    OW1 16.49 25.67 29.46
342    HW2 15.69 26.2 29.39
343    HW3 16.62 25.56 30.4
344    MW4 16.4 25.73 29.57
345    OW1 21.76 11.1 29.61
346    HW2 21.61 10.28 30.08
347    HW3 21.94 11.74 30.3
348    MW4 21.77 11.08 29.77
349    OW1 33.88 35.28 48.01
350    HW2 33.72 36.01 48.6
351    HW3 34.43 34.67 48.51
352    MW4 33.93 35.29 48.15
353    OW1 31.87 11.76 30.97
354    HW2 30.94 11.86 30.77
355    HW3 31.89 11.35 31.83
356    MW4 31.75 11.72 31.06
357    OW1 1.51 3.44 22.61
358    HW2 2.24 3.81 22.1
359    HW3 1.89 2.69 23.06
360    MW4 1.66 3.39 22.6
361    OW1 33.19 20.49 34.13
362    HW2 33.82 19.9 34.54
363    HW3 32.9 21.06 34.84
364    MW4 33.23 20.49 34.28
365    OW1 29.12 30.74 21.78
366    HW2 28.62 31.03 22.55
367    HW3 29.94 30.39 22.14
368    MW4 29.16 30.73 21.93
369    OW1 5.87 35.29 23.89
370    HW2 5.43 34.79 24.57
371    HW3 6.53 34.69 23.54
372    MW4 5.9 35.14 23.94
373    OW1 3.14 4.38 59.61
374    HW2 3.88 4.74 59.13
375    HW3 2.49 5.08 59.61
376    MW4 3.15 4.52 59.55
377    OW1 14.41 18.29 49.92
378    HW2 14.73 18.61 49.08
379    HW3 14.32 17.35 49.8
380    MW4 14.44 18.21 49.79
381    OW1 24.23 19.91 25.04
382    HW2 24.36 18.99 24.79
383    HW3 24.83 20.4 24.48
384    MW4 24.33 19.85 24.93
385    OW1 10.11 22.31 10.41
386    HW2 10.75 21.63 10.2
387    HW3 9.8 22.61 9.55
388    MW4 10.16 22.26 10.26
389    OW1 9.14 23.17 7.87
390    HW2 8.46 23.85 7.79
391    HW3 9.87 23.5 7.34
392    MW4 9.15 23.31 7.79
393    OW1 6.11 21.88 4.35
394    HW2 5.33 21.36 4.14
395    HW3 5.78 22.64 4.82
396    MW4 5.96 21.91 4.38
397    OW1 5.14 18.34 5.84
398    HW2 5.83 18.55 6.47
399    HW3 5.46 17.57 5.38
400    MW4 5.28 18.26 5.87
401    OW1 6.94 19.06 7.73
402    HW2 6.46 19.27 8.53
403    HW3 7.15 19.91 7.34
404    MW4 6.9 19.2 7.78
405    OW1 7.74 21.14 0.62
406    HW2 7.94 20.42 1.22
407    HW3 7.5 21.87 1.18
408    MW4 7.74 21.14 0.77
409    OW1 10.03 20.26 4.52
410    HW2 10.43 19.5 4.95
411    HW3 9.38 20.58 5.15
412    MW4 9.99 20.2 4.66
413    OW1 6.99 23.31 2.11
414    HW2 6.85 22.81 2.92
415    HW3 7.71 23.91 2.31
416    MW4 7.07 23.32 2.25
417    OW1 5.17 18.04 0.53
418    HW2 4.66 17.46 62.96
419    HW3 5.41 18.78 62.98
420    MW4 5.13 18.06 0.38
421    OW1 8.61 19.14 2.37
422    HW2 9.08 19.39 3.17
423    HW3 9.3 18.94 1.74
424    MW4 8.76 19.15 2.39
425    OW1 5.82 19.93 10.05
426    HW2 5.43 19.32 10.68
427    HW3 6.49 20.4 10.56
428    MW4 5.86 19.91 10.21
429    OW1 8.02 21.04 6.29
430    HW2 8.32 21.77 6.83
431    HW3 7.45 21.45 5.64
432    MW4 7.98 21.2 6.28
433    OW1 18.35 22.32 44.15
434    HW2 17.78 21.99 43.46
435    HW3 18.39 23.26 44.01
436    MW4 18.28 22.4 44.04
437    OW1 6.28 29.29 23.85
438    HW2 5.63 28.87 24.43
439    HW3 5.75 29.83 23.26
440    MW4 6.12 29.31 23.85
441    OW1 22.75 8.21 45.37
442    HW2 23.69 8.13 45.52
443    HW3 22.45 8.79 46.07
444    MW4 22.84 8.28 45.49
445    OW1 19.28 35.82 40.34
446    HW2 18.93 35.02 39.96
447    HW3 19.78 36.23 39.63
448    MW4 19.3 35.76 40.2
449    OW1 35.21 24.63 22.84
450    HW2 34.74 25.15 23.49
451    HW3 35.6 23.92 23.35
452    MW4 35.2 24.6 23
453    OW1 36.37 22.52 24.33
454    HW2 35.96 22.01 25.02
455    HW3 0.34 21.88 23.8
456    MW4 36.38 22.37 24.35
457    OW1 28.41 0.22 42.83
458    HW2 27.78 36.01 42.98
459    HW3 28.11 0.62 42.01
460    MW4 28.28 0.18 42.74
461    OW1 22.85 21.52 51.29
462    HW2 21.9 21.57 51.41
463    HW3 22.97 21.43 50.34
464    MW4 22.74 21.51 51.18
465    OW1 17.81 22.33 30.92
466    HW2 18.33 22.18 30.13
467    HW3 18.43 22.22 31.64
468    MW4 17.97 22.29 30.91
469    OW1 29.19 23.7 39.07
470    HW2 28.45 23.15 38.8
471    HW3 29.9 23.07 39.22
472    MW4 29.19 23.54 39.05
473    OW1 11.19 18.54 30.98
474    HW2 11.59 19.34 31.32
475    HW3 10.27 18.77 30.84
476    MW4 11.12 18.68 31.01
477    OW1 16.93 30.32 57.47
478    HW2 16.31 29.95 58.1
479    HW3 17.26 29.56 57
480    MW4 16.89 30.16 57.49
481    OW1 31.3 0.71 59.25
482    HW2 30.48 0.55 58.78
483    HW3 31.54 1.61 59.02
484    MW4 31.22 0.81 59.16
485    OW1 14.41 16.81 59.56
486    HW2 14.95 17.32 58.96
487    HW3 14.2 16.01 59.08
488    MW4 14.45 16.77 59.42
489    OW1 11.15 24.97 22.1
490    HW2 10.78 24.24 21.6
491    HW3 11.6 24.56 22.84
492    MW4 11.16 24.82 22.13
493    OW1 28.72 5.05 51.02
494    HW2 28.9 4.28 51.57
495    HW3 28.06 5.54 51.51
496    MW4 28.66 5.01 51.16
497    OW1 10.74 16.98 49.55
498    HW2 10.68 16.69 50.46
499    HW3 11.12 17.85 49.6
500    MW4 10.78 17.05 49.68
501    OW1 4.09 5.97 50.85
502    HW2 5.02 5.93 51.08
503    HW3 4.07 5.79 49.91
504    MW4 4.21 5.94 50.75
505    OW1 2.45 0.12 31.46
506    HW2 1.93 0.57 30.8
507    HW3 1.82 36.11 31.96
508    MW4 2.3 0.11 31.44
509    OW1 7.37 0.49 25.68
510    HW2 6.79 0.88 26.34
511    HW3 6.82 36.34 25.24
512    MW4 7.21 0.46 25.71
513    OW1 34.57 10.43 52.77
514    HW2 34.52 9.5 52.96
515    HW3 34.57 10.86 53.63
516    MW4 34.56 10.36 52.91
517    OW1 32.42 7.42 55.64
518    HW2 33.08 7.46 54.94
519    HW3 31.89 6.66 55.42
520    MW4 32.44 7.32 55.52
521    OW1 18.14 7.86 61.46
522    HW2 17.67 7.28 62.07
523    HW3 17.55 8.6 61.33
524    MW4 18 7.88 61.53
525    OW1 23.4 1.67 41.52
526    HW2 23.72 0.77 41.51
527    HW3 22.52 1.61 41.89
528    MW4 23.33 1.54 41.57
529    OW1 32.23 15.49 16.48
530    HW2 32.9 15.08 15.94
531    HW3 32.7 16.16 16.99
532    MW4 32.38 15.53 16.48
533    OW1 31.92 4 53.43
534    HW2 32.3 4.52 52.72
535    HW3 31.26 3.46 53
536    MW4 31.88 4 53.28
537    OW1 19.55 0.63 59.35
538    HW2 19.24 0.99 60.19
539    HW3 18.75 0.41 58.88
540    MW4 19.4 0.65 59.4
541    OW1 36.12 10.9 23.68
542    HW2 0.24 10.42 23.13
543    HW3 0.16 11.39 24.3
544    MW4 36.27 10.9 23.69
545    OW1 34.32 19.17 53.71
546    HW2 33.62 19.7 53.34
547    HW3 35.1 19.43 53.23
548    MW4 34.33 19.28 53.6
549    OW1 32.71 21.69 25.06
550    HW2 32.57 22.1 24.21
551    HW3 32.06 22.09 25.63
552    MW4 32.6 21.8 25.02
553    OW1 3.68 25.81 34.81
554    HW2 2.95 25.92 35.43
555    HW3 3.47 26.41 34.09
556    MW4 3.55 25.91 34.79
557    OW1 18.72 6.26 40.72
558    HW2 17.88 6.03 41.11
559    HW3 19.23 5.44 40.74
560    MW4 18.68 6.12 40.77
561    OW1 18.59 9.47 51.7
562    HW2 19.26 8.78 51.73
563    HW3 18.1 9.37 52.51
564    MW4 18.62 9.37 51.81
565    OW1 30.28 20.93 48.4
566    HW2 30.7 21.45 47.71
567    HW3 31 20.65 48.96
568    MW4 30.44 20.96 48.38
569    OW1 17.28 18.9 21.93
570    HW2 16.8 18.14 21.6
571    HW3 16.61 19.49 22.25
572    MW4 17.13 18.88 21.93
573    OW1 12.96 3.75 29.45
574    HW2 12.78 2.94 28.97
575    HW3 12.41 4.41 29.02
576    MW4 12.86 3.73 29.33
577    OW1 28.74 24 28.13
578    HW2 28.85 24.81 28.63
579    HW3 27.89 24.11 27.68
580    MW4 28.64 24.13 28.14
581    OW1 3.42 22.23 52.55
582    HW2 3.58 23.09 52.93
583    HW3 3.95 21.63 53.07
584    MW4 3.51 22.26 52.67
585    OW1 12.49 15.29 52.35
586    HW2 11.57 15.35 52.11
587    HW3 12.95 15.21 51.51
588    MW4 12.43 15.29 52.21
589    OW1 25.92 1.15 33.48
590    HW2 25.54 1 32.61
591    HW3 26.85 1.32 33.31
592    MW4 25.99 1.16 33.34
593    OW1 0.59 28.66 36.74
594    HW2 0.74 28.91 35.83
595    HW3 36.42 29.27 37.05
596    MW4 0.52 28.77 36.66
597    OW1 5.26 13.56 41.73
598    HW2 5.78 14.33 41.96
599    HW3 4.36 13.9 41.63
600    MW4 5.21 13.71 41.75
601    OW1 5.08 6.09 16.8
602    HW2 4.83 6.83 16.25
603    HW3 5.22 5.37 16.19
604    MW4 5.07 6.09 16.65
605    OW1 21.35 1.9 46.08
606    HW2 22.19 1.9 46.54
607    HW3 20.7 1.74 46.77
608    MW4 21.38 1.88 46.23
609    OW1 4.41 32.09 43.3
610    HW2 5.1 32.21 42.66
611    HW3 3.6 32.08 42.79
612    MW4 4.39 32.1 43.15
613    OW1 4.81 6.79 28.45
614    HW2 4.18 7.23 29.02
615    HW3 4.29 6.14 27.97
616    MW4 4.65 6.76 28.46
617    OW1 3.58 7.66 38.47
618    HW2 3.21 7.43 39.32
619    HW3 4.47 7.95 38.66
620    MW4 3.65 7.66 38.61
621    OW1 28.97 6.2 30.23
622    HW2 29.41 7.05 30.24
623    HW3 28.42 6.23 29.45
624    MW4 28.96 6.32 30.13
625    OW1 9.29 1.76 23.95
626    HW2 8.64 1.45 24.58
627    HW3 8.87 2.51 23.53
628    MW4 9.15 1.82 23.98
629    OW1 9.1 5.44 18.4
630    HW2 8.64 4.74 17.94
631    HW3 8.48 6.16 18.43
632    MW4 8.96 5.44 18.34
633    OW1 5.74 3.93 15.52
634    HW2 5.04 3.31 15.3
635    HW3 6.01 4.3 14.68
636    MW4 5.68 3.89 15.38
637    OW1 2.68 35.66 18.06
638    HW2 2.02 36.36 18.12
639    HW3 2.21 34.93 17.65
640    MW4 2.53 35.66 18.01
641    OW1 4.9 0.06 16.73
642    HW2 4.14 36.38 17.29
643    HW3 5.52 0.49 17.3
644    MW4 4.88 0.09 16.88
645    OW1 7.82 3.06 11.52
646    HW2 8.44 3.39 10.87
647    HW3 8.32 2.41 12.02
648    MW4 7.97 3.01 11.5
649    OW1 9.66 2.28 15.23
650    HW2 10.42 2.84 15.08
651    HW3 9.13 2.75 15.86
652    MW4 9.69 2.42 15.29
653    OW1 6.74 4.96 13.26
654    HW2 7.26 4.26 12.84
655    HW3 6.04 5.13 12.63
656    MW4 6.72 4.89 13.12
657    OW1 4.6 0 11.65
658    HW2 4.35 35.85 11
659    HW3 5.46 36.21 11.97
660    MW4 4.68 36.37 11.61
661    OW1 8.98 0.92 12.9
662    HW2 8.2 0.39 12.99
663    HW3 9.12 1.29 13.77
664    MW4 8.9 0.9 13.03
665    OW1 13.25 0.72 39.02
666    HW2 13.5 0.15 39.74
667    HW3 13.44 1.61 39.33
668    MW4 13.31 0.77 39.16
669    OW1 7.91 3.43 17.12
670    HW2 7.22 3.67 16.49
671    HW3 7.54 2.69 17.61
672    MW4 7.77 3.36 17.1
673    OW1 16.29 27.91 61.65
674    HW2 15.52 27.62 62.15
675    HW3 15.92 28.27 60.85
676    MW4 16.14 27.92 61.61
677    OW1 5.58 15.46 56.01
678    HW2 4.94 14.75 56.08
679    HW3 6.37 15.11 56.41
680    MW4 5.6 15.32 56.07
681    OW1 17.74 10.71 38.5
682    HW2 16.79 10.68 38.64
683    HW3 18.04 9.83 38.7
684    MW4 17.65 10.59 38.54
685    OW1 25.95 27.86 52.2
686    HW2 25.49 28.54 52.7
687    HW3 26.57 27.48 52.83
688    MW4 25.97 27.9 52.35
689    OW1 22.48 28.27 51.59
690    HW2 23.13 27.71 51.18
691    HW3 22.92 29.11 51.7
692    MW4 22.62 28.31 51.55
693    OW1 25.49 11.36 55.87
694    HW2 25.02 10.72 55.32
695    HW3 25.1 12.2 55.63
696    MW4 25.37 11.39 55.76
697    OW1 17 15.13 45.85
698    HW2 17.21 14.79 44.98
699    HW3 17.44 15.98 45.9
700    MW4 17.08 15.2 45.74
701    OW1 25.14 21.89 39.32
702    HW2 25.39 21.79 40.24
703    HW3 25.04 21 39
704    MW4 25.16 21.76 39.4
705    OW1 2.1 29.07 45.31
706    HW2 2.17 28.23 45.76
707    HW3 1.85 29.69 46
708    MW4 2.07 29.04 45.46
709    OW1 12.2 30.2 32.25
710    HW2 11.3 30.06 32.52
711    HW3 12.16 30.96 31.67
712    MW4 12.07 30.28 32.2
713    OW1 28.23 14.85 37.6
714    HW2 28.76 14.07 37.51
715    HW3 27.5 14.59 38.17
716    MW4 28.2 14.71 37.67
717    OW1 14.1 19.33 34.03
718    HW2 14.1 20.2 34.43
719    HW3 14.16 18.72 34.77
720    MW4 14.11 19.37 34.18
721    OW1 9.9 10.01 9.59
722    HW2 10.23 10.66 10.22
723    HW3 10.57 9.32 9.59
724    MW4 10.04 10.01 9.67
725    OW1 8.96 10.78 7.06
726    HW2 9.36 10.68 7.92
727    HW3 9.64 11.2 6.52
728    MW4 9.11 10.83 7.1
729    OW1 5.85 9.97 4.2
730    HW2 6.64 9.55 4.54
731    HW3 5.17 9.29 4.25
732    MW4 5.86 9.83 4.25
733    OW1 4.84 5.89 5.85
734    HW2 5.54 6.25 6.4
735    HW3 4.55 6.64 5.32
736    MW4 4.9 6.04 5.85
737    OW1 6.96 6.89 7.33
738    HW2 6.77 7.35 8.15
739    HW3 7.66 6.28 7.56
740    MW4 7.03 6.87 7.47
741    OW1 6.95 10.69 1.86
742    HW2 7.61 11.34 2.09
743    HW3 6.5 10.5 2.68
744    MW4 6.98 10.75 2
745    OW1 10.25 7.78 4.25
746    HW2 10.74 8.59 4.19
747    HW3 9.44 8.03 4.69
748    MW4 10.2 7.92 4.3
749    OW1 10.29 9.82 61.81
750    HW2 10.9 9.09 61.69
751    HW3 9.61 9.47 62.39
752    MW4 10.28 9.68 61.88
753    OW1 5 5.83 0.34
754    HW2 4.26 6.23 0.81
755    HW3 4.58 5.33 62.64
756    MW4 4.84 5.82 0.31
757    OW1 9.04 6.53 1.95
758    HW2 9.33 6.91 2.78
759    HW3 8.8 7.29 1.41
760    MW4 9.05 6.69 1.99
761    OW1 5.57 8.15 9.49
762    HW2 6.22 8.56 10.05
763    HW3 4.91 8.83 9.35
764    MW4 5.56 8.3 9.54
765    OW1 7.94 8.69 5.53
766    HW2 8.33 9.31 6.14
767    HW3 7.68 7.94 6.07
768    MW4 7.96 8.67 5.68
769    OW1 24.28 14.47 42.54
770    HW2 24.33 13.54 42.77
771    HW3 23.37 14.6 42.27
772    MW4 24.17 14.36 42.53
773    OW1 12.56 21.03 53.86
774    HW2 12.93 21.81 53.45
775    HW3 12.26 21.32 54.72
776    MW4 12.57 21.17 53.92
777    OW1 16.01 4.55 46.18
778    HW2 15.27 3.99 45.95
779    HW3 15.62 5.26 46.69
780    MW4 15.86 4.57 46.22
781    OW1 31.73 15.18 29.83
782    HW2 30.85 15.12 30.2
783    HW3 31.58 15.27 28.89
784    MW4 31.59 15.18 29.75
785    OW1 27.87 28.8 39.16
786    HW2 27.62 29.71 39.03
787    HW3 27.97 28.45 38.27
788    MW4 27.85 28.87 39.02
789    OW1 26.97 11.32 18.22
790    HW2 27.35 11.08 19.07
791    HW3 27.71 11.63 17.7
792    MW4 27.12 11.33 18.27
793    OW1 3.76 10.12 44.05
794    HW2 3.6 10.3 44.97
795    HW3 3.07 10.6 43.58
796    MW4 3.65 10.21 44.11
797    OW1 1.63 8.69 16.57
798    HW2 1.33 8.04 17.21
799    HW3 1.87 9.45 17.1
800    MW4 1.62 8.71 16.73
801    OW1 29.62 0.27 21.18
802    HW2 30.36 36.48 21.72
803    HW3 29.05 0.73 21.79
804    MW4 29.64 0.29 21.34
805    OW1 29.36 16.8 39.33
806    HW2 28.9 16.17 38.78
807    HW3 29.51 16.34 40.15
808    MW4 29.32 16.65 39.36
809    OW1 7.19 16.09 38.2
810    HW2 7.4 15.16 38.28
811    HW3 7.62 16.49 38.96
812    MW4 7.28 16.02 38.32
813    OW1 27.07 9.4 40.73
814    HW2 27.85 9.11 40.27
815    HW3 26.34 8.99 40.27
816    MW4 27.07 9.31 40.61
817    OW1 15.59 6.72 24.29
818    HW2 15.27 5.87 24.6
819    HW3 16.27 6.5 23.65
820    MW4 15.64 6.58 24.25
821    OW1 24.45 32.71 49.97
822    HW2 23.97 32.29 50.68
823    HW3 23.79 33.23 49.51
824    MW4 24.29 32.72 50
825    OW1 30.31 3.54 38.78
826    HW2 29.77 4.14 39.3
827    HW3 30.85 4.12 38.24
828    MW4 30.31 3.7 38.78
829    OW1 12.34 24.07 47.12
830    HW2 12.42 23.24 47.59
831    HW3 11.52 24 46.64
832    MW4 12.24 23.95 47.12
833    OW1 35.34 24.29 46.29
834    HW2 35.18 24.67 45.42
835    HW3 36.27 24.42 46.45
836    MW4 35.44 24.36 46.2
837    OW1 6.24 13.61 31.86
838    HW2 5.3 13.65 31.68
839    HW3 6.6 13.11 31.12
840    MW4 6.16 13.55 31.73
841    OW1 26.6 7.74 33.02
842    HW2 26.25 7.77 32.13
843    HW3 27.49 8.09 32.94
844    MW4 26.67 7.79 32.89
845    OW1 34.47 33.43 35.34
846    HW2 33.96 34.24 35.35
847    HW3 35.34 33.7 35.02
848    MW4 34.52 33.57 35.3
849    OW1 35.04 21.41 26.36
850    HW2 35.17 22.02 27.09
851    HW3 34.19 21.64 26
852    MW4 34.94 21.52 26.41
853    OW1 17.13 3 39.74
854    HW2 16.98 2.07 39.59
855    HW3 16.39 3.28 40.29
856    MW4 17.01 2.91 39.8
857    OW1 0.12 3.74 49.88
858    HW2 36.13 3.11 49.34
859    HW3 1.03 3.65 49.58
860    MW4 0.18 3.64 49.77
861    OW1 33.69 31.38 46.59
862    HW2 32.94 31.67 46.06
863    HW3 34.38 32.02 46.4
864    MW4 33.68 31.5 46.49
865    OW1 10.88 21.96 25.55
866    HW2 11.45 21.38 26.07
867    HW3 10.32 21.36 25.06
868    MW4 10.88 21.8 25.55
869    OW1 0.88 12.97 39.48
870    HW2 0.01 12.85 39.86
871    HW3 0.71 13.1 38.54
872    MW4 0.74 12.97 39.4
873    OW1 5.22 3.89 39.53
874    HW2 5.47 3.98 40.45
875    HW3 6 4.18 39.04
876    MW4 5.36 3.94 39.58
877    OW1 4.78 1.43 38.09
878    HW2 5.41 1.39 37.37
879    HW3 4.95 2.27 38.51
880    MW4 4.89 1.54 38.05
881    OW1 31.67 36.14 23.11
882    HW2 32.31 0.35 23.21
883    HW3 31.24 36.09 23.97
884    MW4 31.7 36.23 23.24
885    OW1 1.81 2.17 34.85
886    HW2 2.19 3 35.11
887    HW3 1.81 1.65 35.65
888    MW4 1.86 2.21 34.99
889    OW1 5.21 5.42 33.81
890    HW2 5.91 4.96 34.28
891    HW3 5.6 6.26 33.57
892    MW4 5.36 5.47 33.84
893    OW1 20.15 27.96 23.84
894    HW2 20.64 28.1 24.65
895    HW3 20.34 28.73 23.31
896    MW4 20.24 28.08 23.87
897    OW1 18.01 7.91 38.66
898    HW2 18.3 7.68 37.78
899    HW3 18.45 7.27 39.23
900    MW4 18.11 7.79 38.62
901    OW1 26.67 33.85 22.45
902    HW2 26.47 34.68 22.88
903    HW3 25.81 33.45 22.3
904    MW4 26.53 33.9 22.49
905    OW1 34.9 12.26 40.65
906    HW2 34.74 12.16 41.59
907    HW3 34.81 11.37 40.3
908    MW4 34.87 12.13 40.73
909    OW1 17.39 0.11 43.35
910    HW2 17.91 0.84 43.01
911    HW3 17.5 0.16 44.3
912    MW4 17.47 0.21 43.44
913    OW1 34.34 22.31 61.81
914    HW2 34.09 22.54 60.92
915    HW3 34.97 21.59 61.7
916    MW4 34.39 22.24 61.67
917    OW1 31.02 24.99 59.43
918    HW2 30.26 24.64 58.96
919    HW3 30.65 25.4 60.21
920    MW4 30.87 25 59.47
921    OW1 0.67 22.4 53.54
922    HW2 0.2 23.08 53.04
923    HW3 1.57 22.45 53.22
924    MW4 0.73 22.5 53.43
925    OW1 25.16 16.37 55.57
926    HW2 26.05 16.04 55.49
927    HW3 25.09 16.67 56.48
928    MW4 25.27 16.37 55.68
929    OW1 31.01 18.94 59.13
930    HW2 31.54 18.24 59.51
931    HW3 30.77 19.49 59.88
932    MW4 31.05 18.92 59.28
933    OW1 0.48 1.56 29.9
934    HW2 0.01 1.3 29.11
935    HW3 0.94 2.36 29.65
936    MW4 0.48 1.64 29.76
937    OW1 32.17 20.31 52.52
938    HW2 31.64 21.07 52.75
939    HW3 32.34 20.41 51.58
940    MW4 32.12 20.42 52.42
941    OW1 7.86 21.76 28.91
942    HW2 7.44 22.37 29.52
943    HW3 8.56 22.27 28.5
944    MW4 7.9 21.91 28.94
945    OW1 19.64 19.12 47.77
946    HW2 19.81 18.81 48.66
947    HW3 19.51 20.06 47.86
948    MW4 19.65 19.2 47.9
949    OW1 10.53 6.92 32.79
950    HW2 10.24 6.33 33.49
951    HW3 11.46 6.73 32.69
952    MW4 10.62 6.81 32.87
953    OW1 30.18 20.36 61.58
954    HW2 29.91 19.57 62.05
955    HW3 30.93 20.69 62.07
956    MW4 30.24 20.29 61.71
957    OW1 31.95 21.18 57.74
958    HW2 32.59 20.75 57.18
959    HW3 31.58 20.47 58.27
960    MW4 31.98 21.03 57.74
961    OW1 15.07 11.24 46.48
962    HW2 14.79 10.33 46.57
963    HW3 15.99 11.18 46.2
964    MW4 15.16 11.11 46.46
965    OW1 31.35 3.37 44.59
966    HW2 30.75 3.26 45.33
967    HW3 32.21 3.12 44.94
968    MW4 31.39 3.32 44.74
969    OW1 15.9 0.81 54.34
970    HW2 15.99 1.39 55.1
971    HW3 16.75 0.35 54.29
972    MW4 16.03 0.82 54.44
973    OW1 11.61 3.61 51.76
974    HW2 11.81 2.68 51.88
975    HW3 10.68 3.68 51.94
976    MW4 11.51 3.49 51.8
977    OW1 33.82 5.02 47.6
978    HW2 34.25 5.29 48.41
979    HW3 33.8 5.81 47.06
980    MW4 33.87 5.17 47.64
981    OW1 31.62 32.36 45.17
982    HW2 31.75 33.29 45.36
983    HW3 31.12 32.34 44.36
984    MW4 31.57 32.48 45.09
985    OW1 22.95 1.72 26.42
986    HW2 23.88 1.72 26.19
987    HW3 22.74 2.64 26.58
988    MW4 23.05 1.84 26.41
989    OW1 32.3 21.96 36.17
990    HW2 32.42 21.39 36.94
991    HW3 32.9 22.69 36.32
992    MW4 32.4 21.98 36.3
993    OW1 21.53 29.57 36.6
994    HW2 21.14 29.92 35.8
995    HW3 21.39 28.63 36.54
996    MW4 21.46 29.49 36.48
997    OW1 0.83 31.16 32.61
998    HW2 1.03 30.3 32.98
999    HW3 0.72 31.73 33.38
1000    MW4 0.84 31.12 32.77
1001    OW1 12.73 35.34 24.24
1002    HW2 12.14 34.88 24.84
1003    HW3 13.2 34.64 23.78
1004    MW4 12.71 35.18 24.26
1005    OW1 5.87 34.82 30.6
1006    HW2 6.41 34.46 29.91
1007    HW3 5.26 35.4 30.16
1008    MW4 5.86 34.85 30.45
1009    OW1 9.65 34.38 9.79
1010    HW2 9.3 34.62 8.93
1011    HW3 10.37 33.77 9.6
1012    MW4 9.7 34.33 9.65
1013    OW1 8.58 35.13 7.31
1014    HW2 9.37 35.51 6.92
1015    HW3 7.92 35.82 7.23
1016    MW4 8.6 35.28 7.24
1017    OW1 5.81 34.38 4.12
1018    HW2 5.51 35.12 4.65
1019    HW3 6.46 33.94 4.68
1020    MW4 5.86 34.42 4.27
1021    OW1 4.83 29.95 5.71
1022    HW2 4.11 29.69 6.28
1023    HW3 4.52 30.75 5.29
1024    MW4 4.69 30.03 5.73
1025    OW1 6.33 31.51 7.41
1026    HW2 5.91 30.9 6.8
1027    HW3 6.84 32.09 6.84
1028    MW4 6.34 31.51 7.25
1029    OW1 8.19 32.95 0.44
1030    HW2 7.72 33.63 0.92
1031    HW3 8.35 32.27 1.09
1032    MW4 8.15 32.95 0.59
1033    OW1 10.23 32.36 4.34
1034    HW2 9.97 31.88 3.56
1035    HW3 10.36 31.69 5.01
1036    MW4 10.21 32.21 4.32
1037    OW1 7.17 35.13 1.77
1038    HW2 6.71 34.96 2.59
1039    HW3 7.77 35.85 1.97
1040    MW4 7.19 35.2 1.9
1041    OW1 4.91 29.96 0.42
1042    HW2 5.25 30.71 62.93
1043    HW3 5.62 29.71 1.01
1044    MW4 5.05 30.03 0.43
1045    OW1 9.13 30.85 2.38
1046    HW2 8.37 30.26 2.42
1047    HW3 9.67 30.49 1.67
1048    MW4 9.1 30.72 2.29
1049    OW1 5.58 32.76 9.75
1050    HW2 6.22 33.02 10.41
1051    HW3 6.11 32.42 9.03
1052    MW4 5.74 32.75 9.74
1053    OW1 7.69 33.15 5.65
1054    HW2 7.95 33.89 6.19
1055    HW3 8.45 32.96 5.1
1056    MW4 7.82 33.22 5.65
1057    OW1 18.43 8.07 20.45
1058    HW2 19.01 8.6 20.98
1059    HW3 18.07 7.42 21.06
1060    MW4 18.46 8.05 20.6
1061    OW1 15.17 4.85 18.07
1062    HW2 14.63 5.63 18.18
1063    HW3 14.65 4.26 17.52
1064    MW4 15.03 4.87 18.01
1065    OW1 11.77 4.16 15.32
1066    HW2 12.08 4.58 14.51
1067    HW3 11.43 4.88 15.85
1068    MW4 11.76 4.31 15.28
1069    OW1 10.57 0.22 16.92
1070    HW2 10.4 0.97 16.35
1071    HW3 10.9 36.04 16.33
1072    MW4 10.59 0.23 16.77
1073    OW1 12.89 1.15 18.21
1074    HW2 12.11 0.74 17.82